                         Program Version 4.0.1.2 - RELEASE -
|  1> # ================================================================
|  2> # Orca input file
|  3> # ================================================================
|  4> ! HF def2-QZVP VeryTightSCF UseSym
|  5>
|  6> ! PAL4
|  7>
|  8> %scf
|  9>   STABPerform true
| 10> #  STABRestartUHFifUnstable true
| 11> end
| 12>
| 13>
| 14>
| 15> * xyzfile 0 4 ../../../../chem_database/P.xyz
| 16>
| 17>                          ****END OF INPUT****

CARTESIAN COORDINATES (ANGSTROEM)
---------------------------------
  P      0.000000    0.000000    0.000000

 Total Charge           Charge          ....    0
 Multiplicity           Mult            ....    4
 Number of Electrons    NEL             ....   15
 Basis Dimension        Dim             ....   70

ORBITAL ENERGIES
----------------
                 SPIN UP ORBITALS
  NO   OCC          E(Eh)            E(eV)    Irrep
   0   1.0000     -79.980072     -2176.3684    1-Ag
   1   1.0000      -7.521597      -204.6731    2-Ag
   2   1.0000      -5.421283      -147.5206    1-B3u
   3   1.0000      -5.421283      -147.5206    1-B2u
   4   1.0000      -5.421283      -147.5206    1-B1u
   5   1.0000      -0.836126       -22.7522    3-Ag
   6   1.0000      -0.392022       -10.6675    2-B1u
   7   1.0000      -0.392022       -10.6675    2-B2u
   8   1.0000      -0.392022       -10.6675    2-B3u
   9   0.0000       0.228409         6.2153    4-Ag
  10   0.0000       0.229192         6.2366    3-B2u
  11   0.0000       0.229192         6.2366    3-B3u
  12   0.0000       0.229192         6.2366    3-B1u
  13   0.0000       0.298014         8.1094    1-B3g

                 SPIN DOWN ORBITALS
  NO   OCC          E(Eh)            E(eV)    Irrep
   0   1.0000     -79.958465     -2175.7805    1-Ag
   1   1.0000      -7.499730      -204.0780    2-Ag
   2   1.0000      -5.379839      -146.3929    1-B3u
   3   1.0000      -5.379839      -146.3929    1-B2u
   4   1.0000      -5.379839      -146.3929    1-B1u
   5   1.0000      -0.556147       -15.1335    3-Ag
   6   0.0000       0.044152         1.2014    2-B1u
   7   0.0000       0.044152         1.2014    2-B3u
   8   0.0000       0.044152         1.2014    2-B2u
   9   0.0000       0.270268         7.3544    4-Ag
  10   0.0000       0.295814         8.0495    3-B2u

MULLIKEN ATOMIC CHARGES AND SPIN POPULATIONS
--------------------------------------------
   0 P :    0.000000    3.000000
Sum of atomic charges         :    0.0000000

LOEWDIN ATOMIC CHARGES AND SPIN POPULATIONS
-------------------------------------------
   0 P :    0.000000    3.000000

FINAL SINGLE POINT ENERGY      -340.719044320881

DIPOLE MOMENT
-------------
                                X             Y             Z
Electronic contribution:      0.00000       0.00000      -0.00000
Nuclear contribution   :      0.00000       0.00000       0.00000
                        -----------------------------------------
Total Dipole Moment    :      0.00000       0.00000      -0.00000
                        -----------------------------------------
Magnitude (a.u.)       :      0.00000
Magnitude (Debye)      :      0.00000

                             ****ORCA TERMINATED NORMALLY****
TOTAL RUN TIME: 0 days 0 hours 0 minutes 4 seconds 561 msec
