                         Program Version 4.0.1.2 - RELEASE -
|  1> # ================================================================
|  2> # Orca input file
|  3> # ================================================================
|  4> ! HF def2-QZVP VeryTightSCF UseSym
|  5>
|  6> ! PAL4
|  7>
|  8> %scf
|  9>   STABPerform true
| 10> #  STABRestartUHFifUnstable true
| 11> end
| 12>
| 13>
| 14>
| 15> * xyzfile 0 2 ../../../../chem_database/K.xyz
| 16>
| 17>                          ****END OF INPUT****

CARTESIAN COORDINATES (ANGSTROEM)
---------------------------------
  K      0.000000    0.000000    0.000000

 Total Charge           Charge          ....    0
 Multiplicity           Mult            ....    2
 Number of Electrons    NEL             ....   19
 Basis Dimension        Dim             ....   56

ORBITAL ENERGIES
----------------
                 SPIN UP ORBITALS
  NO   OCC          E(Eh)            E(eV)    Irrep
   0   1.0000    -133.534044     -3633.6461    1-Ag
   1   1.0000     -14.491226      -394.3263    2-Ag
   2   1.0000     -11.519810      -313.4700    1-B3u
   3   1.0000     -11.519810      -313.4700    1-B2u
   4   1.0000     -11.519810      -313.4700    1-B1u
   5   1.0000      -1.751166       -47.6517    3-Ag
   6   1.0000      -0.955127       -25.9903    2-B1u
   7   1.0000      -0.955127       -25.9903    2-B3u
   8   1.0000      -0.955127       -25.9903    2-B2u
   9   1.0000      -0.147642        -4.0175    4-Ag
  10   0.0000       0.013303         0.3620    3-B2u
  11   0.0000       0.013303         0.3620    3-B3u
  12   0.0000       0.013303         0.3620    3-B1u
  13   0.0000       0.062175         1.6919    5-Ag
  14   0.0000       0.077438         2.1072    4-B2u

                 SPIN DOWN ORBITALS
  NO   OCC          E(Eh)            E(eV)    Irrep
   0   1.0000    -133.533021     -3633.6182    1-Ag
   1   1.0000     -14.489315      -394.2743    2-Ag
   2   1.0000     -11.519382      -313.4583    1-B2u
   3   1.0000     -11.519382      -313.4583    1-B1u
   4   1.0000     -11.519382      -313.4583    1-B3u
   5   1.0000      -1.746284       -47.5188    3-Ag
   6   1.0000      -0.953541       -25.9472    2-B1u
   7   1.0000      -0.953541       -25.9472    2-B2u
   8   1.0000      -0.953541       -25.9472    2-B3u
   9   0.0000       0.011587         0.3153    4-Ag
  10   0.0000       0.028285         0.7697    3-B2u
  11   0.0000       0.028285         0.7697    3-B1u
  12   0.0000       0.028285         0.7697    3-B3u
  13   0.0000       0.086948         2.3660    5-Ag

MULLIKEN ATOMIC CHARGES AND SPIN POPULATIONS
--------------------------------------------
   0 K :    0.000000    1.000000
Sum of atomic charges         :    0.0000000

LOEWDIN ATOMIC CHARGES AND SPIN POPULATIONS
-------------------------------------------
   0 K :    0.000000    1.000000

FINAL SINGLE POINT ENERGY      -599.164594307437

DIPOLE MOMENT
-------------
                                X             Y             Z
Electronic contribution:     -0.00000      -0.00000       0.00000
Nuclear contribution   :      0.00000       0.00000       0.00000
                        -----------------------------------------
Total Dipole Moment    :     -0.00000      -0.00000       0.00000
                        -----------------------------------------
Magnitude (a.u.)       :      0.00000
Magnitude (Debye)      :      0.00000

                             ****ORCA TERMINATED NORMALLY****
TOTAL RUN TIME: 0 days 0 hours 0 minutes 5 seconds 458 msec
