                         Program Version 4.0.1.2 - RELEASE -
|  1> # ================================================================
|  2> # Orca input file
|  3> # ================================================================
|  4> ! HF def2-QZVP VeryTightSCF UseSym
|  5>
|  6> ! PAL4
|  7>
|  8> %scf
|  9>   STABPerform true
| 10> #  STABRestartUHFifUnstable true
| 11> end
| 12>
| 13>
| 14>
| 15> * xyzfile 0 3 ../../../../chem_database/O.xyz
| 16>
| 17>                          ****END OF INPUT****

CARTESIAN COORDINATES (ANGSTROEM)
---------------------------------
  O      0.000000    0.000000    0.000000

 Total Charge           Charge          ....    0
 Multiplicity           Mult            ....    3
 Number of Electrons    NEL             ....    8
 Basis Dimension        Dim             ....   57

ORBITAL ENERGIES
----------------
                 SPIN UP ORBITALS
  NO   OCC          E(Eh)            E(eV)    Irrep
   0   1.0000     -20.706989      -563.4658    1-Ag
   1   1.0000      -1.417758       -38.5791    2-Ag
   2   1.0000      -0.710579       -19.3358    1-B3u
   3   1.0000      -0.710579       -19.3358    1-B2u
   4   1.0000      -0.611116       -16.6293    1-B1u
   5   0.0000       0.338456         9.2099    2-B2u
   6   0.0000       0.338456         9.2099    2-B3u
   7   0.0000       0.360189         9.8012    2-B1u
   8   0.0000       0.519201        14.1282    3-Ag
   9   0.0000       1.152777        31.3687    1-B1g

                 SPIN DOWN ORBITALS
  NO   OCC          E(Eh)            E(eV)    Irrep
   0   1.0000     -20.628606      -561.3329    1-Ag
   1   1.0000      -1.075419       -29.2636    2-Ag
   2   1.0000      -0.521501       -14.1908    1-B1u
   3   0.0000       0.086802         2.3620    1-B2u
   4   0.0000       0.086802         2.3620    1-B3u
   5   0.0000       0.372577        10.1383    2-B1u
   6   0.0000       0.446518        12.1504    2-B2u
   7   0.0000       0.446518        12.1504    2-B3u

MULLIKEN ATOMIC CHARGES AND SPIN POPULATIONS
--------------------------------------------
   0 O :   -0.000000    2.000000
Sum of atomic charges         :   -0.0000000

LOEWDIN ATOMIC CHARGES AND SPIN POPULATIONS
-------------------------------------------
   0 O :   -0.000000    2.000000

FINAL SINGLE POINT ENERGY       -74.818629311006

DIPOLE MOMENT
-------------
                                X             Y             Z
Electronic contribution:     -0.00000       0.00000      -0.00000
Nuclear contribution   :      0.00000       0.00000       0.00000
                        -----------------------------------------
Total Dipole Moment    :     -0.00000       0.00000      -0.00000
                        -----------------------------------------
Magnitude (a.u.)       :      0.00000
Magnitude (Debye)      :      0.00000

                             ****ORCA TERMINATED NORMALLY****
TOTAL RUN TIME: 0 days 0 hours 0 minutes 4 seconds 729 msec
