                         Program Version 4.0.1.2 - RELEASE -
|  1> # ================================================================
|  2> # Orca input file
|  3> # ================================================================
|  4> ! HF cc-pVQZ VeryTightSCF UseSym
|  5>
|  6> ! PAL4
|  7>
|  8> %scf
|  9>   STABPerform true
| 10> #  STABRestartUHFifUnstable true
| 11> end
| 12>
| 13>
| 14>
| 15> * xyzfile 0 3 ../../../../chem_database/O.xyz
| 16>
| 17>                          ****END OF INPUT****

CARTESIAN COORDINATES (ANGSTROEM)
---------------------------------
  O      0.000000    0.000000    0.000000

 Total Charge           Charge          ....    0
 Multiplicity           Mult            ....    3
 Number of Electrons    NEL             ....    8
 Basis Dimension        Dim             ....   55

ORBITAL ENERGIES
----------------
                 SPIN UP ORBITALS
  NO   OCC          E(Eh)            E(eV)    Irrep
   0   1.0000     -20.706147      -563.4429    1-Ag
   1   1.0000      -1.416804       -38.5532    2-Ag
   2   1.0000      -0.709290       -19.3008    1-B3u
   3   1.0000      -0.709290       -19.3008    1-B1u
   4   1.0000      -0.609898       -16.5962    1-B2u
   5   0.0000       0.519333        14.1318    2-B1u
   6   0.0000       0.519333        14.1318    2-B3u
   7   0.0000       0.553409        15.0590    2-B2u
   8   0.0000       0.572609        15.5815    3-Ag
   9   0.0000       1.153303        31.3830    1-B2g

                 SPIN DOWN ORBITALS
  NO   OCC          E(Eh)            E(eV)    Irrep
   0   1.0000     -20.627715      -561.3087    1-Ag
   1   1.0000      -1.074841       -29.2479    2-Ag
   2   1.0000      -0.521405       -14.1882    1-B2u
   3   0.0000       0.100345         2.7305    1-B1u
   4   0.0000       0.100345         2.7305    1-B3u
   5   0.0000       0.574943        15.6450    2-B2u
   6   0.0000       0.626765        17.0552    3-Ag
   7   0.0000       0.663695        18.0601    2-B1u

MULLIKEN ATOMIC CHARGES AND SPIN POPULATIONS
--------------------------------------------
   0 O :   -0.000000    2.000000
Sum of atomic charges         :   -0.0000000

LOEWDIN ATOMIC CHARGES AND SPIN POPULATIONS
-------------------------------------------
   0 O :   -0.000000    2.000000

FINAL SINGLE POINT ENERGY       -74.817294682428

DIPOLE MOMENT
-------------
                                X             Y             Z
Electronic contribution:     -0.00000       0.00000      -0.00000
Nuclear contribution   :      0.00000       0.00000       0.00000
                        -----------------------------------------
Total Dipole Moment    :     -0.00000       0.00000      -0.00000
                        -----------------------------------------
Magnitude (a.u.)       :      0.00000
Magnitude (Debye)      :      0.00000

                             ****ORCA TERMINATED NORMALLY****
TOTAL RUN TIME: 0 days 0 hours 0 minutes 4 seconds 563 msec
