                         Program Version 4.0.1.2 - RELEASE -
|  1> # ================================================================
|  2> # Orca input file
|  3> # ================================================================
|  4> ! HF def2-QZVP VeryTightSCF UseSym
|  5>
|  6> ! PAL4
|  7>
|  8> #%scf
|  9> #  STABPerform true
| 10> #  STABRestartUHFifUnstable true
| 11> #end
| 12>
| 13>
| 14>
| 15> * xyzfile 0 1 ../../../../chem_database/Zn.xyz
| 16>
| 17>                          ****END OF INPUT****

CARTESIAN COORDINATES (ANGSTROEM)
---------------------------------
  Zn     0.000000    0.000000    0.000000

 Total Charge           Charge          ....    0
 Multiplicity           Mult            ....    1
 Number of Electrons    NEL             ....   30
 Basis Dimension        Dim             ....   84

ORBITAL ENERGIES
----------------

  NO   OCC          E(Eh)            E(eV)    Irrep
   0   2.0000    -353.305722     -9613.9375    1-Ag
   1   2.0000     -44.362398     -1207.1622    2-Ag
   2   2.0000     -38.925586     -1059.2190    1-B1u
   3   2.0000     -38.925586     -1059.2190    1-B3u
   4   2.0000     -38.925586     -1059.2190    1-B2u
   5   2.0000      -5.637784      -153.4119    3-Ag
   6   2.0000      -3.839336      -104.4737    2-B1u
   7   2.0000      -3.839336      -104.4737    2-B3u
   8   2.0000      -3.839336      -104.4737    2-B2u
   9   2.0000      -0.782517       -21.2934    4-Ag
  10   2.0000      -0.782517       -21.2934    5-Ag
  11   2.0000      -0.782517       -21.2934    1-B1g
  12   2.0000      -0.782517       -21.2934    1-B2g
  13   2.0000      -0.782517       -21.2934    1-B3g
  14   2.0000      -0.292515        -7.9597    6-Ag
  15   0.0000       0.043350         1.1796    3-B3u
  16   0.0000       0.043350         1.1796    3-B2u
  17   0.0000       0.043350         1.1796    3-B1u
  18   0.0000       0.112774         3.0687    7-Ag
  19   0.0000       0.189413         5.1542    4-B2u

MULLIKEN ATOMIC CHARGES
-----------------------
   0 Zn:    0.000000
Sum of atomic charges:    0.0000000

LOEWDIN ATOMIC CHARGES
----------------------
   0 Zn:   -0.000000

FINAL SINGLE POINT ENERGY     -1777.847171320488

DIPOLE MOMENT
-------------
                                X             Y             Z
Electronic contribution:     -0.00000       0.00000      -0.00000
Nuclear contribution   :      0.00000       0.00000       0.00000
                        -----------------------------------------
Total Dipole Moment    :     -0.00000       0.00000      -0.00000
                        -----------------------------------------
Magnitude (a.u.)       :      0.00000
Magnitude (Debye)      :      0.00000

                             ****ORCA TERMINATED NORMALLY****
TOTAL RUN TIME: 0 days 0 hours 0 minutes 8 seconds 178 msec
