                         Program Version 4.0.1.2 - RELEASE -
|  1> # ================================================================
|  2> # Orca input file
|  3> # ================================================================
|  4> ! RI-MP2 def2-QZVP def2-QZVPP/C VeryTightSCF
|  5> ! PAL4
|  6>
|  7> %mp2
|  8>   density unrelaxed
|  9>   natorbs true
| 10> end
| 11>
| 12> * xyzfile 0 1 ../../../../chem_database/Be.xyz
| 13>
| 14>
| 15> $new_job
| 16> ! def2-QZVP VeryTightSCF
| 17> ! MOREAD
| 18>
| 19> %moinp "mol.mp2nat"
| 20>
| 21> %casscf
| 22>   nel  2
| 23>   norb 4
| 24>   PrintWF det
| 25> end
| 26>
| 27> * xyzfile 0 1 ../../../../chem_database/Be.xyz
| 28>
| 29>
| 30> $new_job
| 31> ! def2-QZVP VeryTightSCF
| 32>
| 33> %casscf
| 34>   nel  2
| 35>   norb 4
| 36>   PrintWF csf
| 37> end
| 38>
| 39> * xyzfile 0 1 ../../../../chem_database/Be.xyz
| 40>
| 41>                          ****END OF INPUT****
 Total Charge           Charge          ....    0
 Multiplicity           Mult            ....    1
 Number of Electrons    NEL             ....    4
MP2 TOTAL ENERGY:      -14.634957329 Eh
FINAL SINGLE POINT ENERGY       -14.634957329044
FINAL SINGLE POINT ENERGY       -14.616497008293

CARTESIAN COORDINATES (ANGSTROEM)
---------------------------------
  Be     0.000000    0.000000    0.000000

 Multiplicity           Mult            ....    1
 Number of Electrons    NEL             ....    4
 Basis Dimension        Dim             ....   36

ORBITAL ENERGIES
----------------

  NO   OCC          E(Eh)            E(eV)
   0   2.0000      -4.711842      -128.2157
   1   1.8038      -0.277797        -7.5592
   2   0.0654       0.112656         3.0655
   3   0.0654       0.112656         3.0655
   4   0.0654       0.112656         3.0655
   5   0.0000       0.127743         3.4761
   6   0.0000       0.150919         4.1067
   7   0.0000       0.150919         4.1067
   8   0.0000       0.150919         4.1067
   9   0.0000       0.274858         7.4793

MULLIKEN ATOMIC CHARGES
-----------------------
   0 Be:    0.000000
Sum of atomic charges:    0.0000000

LOEWDIN ATOMIC CHARGES
----------------------
   0 Be:    0.000000

FINAL SINGLE POINT ENERGY       -14.616497008293

DIPOLE MOMENT
-------------
                                X             Y             Z
Electronic contribution:      0.00000      -0.00000       0.00000
Nuclear contribution   :      0.00000       0.00000       0.00000
                        -----------------------------------------
Total Dipole Moment    :      0.00000      -0.00000       0.00000
                        -----------------------------------------
Magnitude (a.u.)       :      0.00000
Magnitude (Debye)      :      0.00000

                             ****ORCA TERMINATED NORMALLY****
TOTAL RUN TIME: 0 days 0 hours 0 minutes 7 seconds 417 msec
