                         Program Version 4.0.1.2 - RELEASE -
|  1> # ================================================================
|  2> # Orca input file
|  3> # ================================================================
|  4> ! HF def2-QZVP VeryTightSCF UseSym
|  5>
|  6> ! PAL4
|  7>
|  8> %scf
|  9>   STABPerform true
| 10> #  STABRestartUHFifUnstable true
| 11> end
| 12>
| 13>
| 14>
| 15> * xyzfile 0 3 ../../../../chem_database/S.xyz
| 16>
| 17>                          ****END OF INPUT****

CARTESIAN COORDINATES (ANGSTROEM)
---------------------------------
  S      0.000000    0.000000    0.000000

 Total Charge           Charge          ....    0
 Multiplicity           Mult            ....    3
 Number of Electrons    NEL             ....   16
 Basis Dimension        Dim             ....   70

ORBITAL ENERGIES
----------------
                 SPIN UP ORBITALS
  NO   OCC          E(Eh)            E(eV)    Irrep
   0   1.0000     -92.012728     -2503.7936    1-Ag
   1   1.0000      -9.012406      -245.2400    2-Ag
   2   1.0000      -6.705551      -182.4673    1-B1u
   3   1.0000      -6.705551      -182.4673    1-B2u
   4   1.0000      -6.685059      -181.9097    1-B3u
   5   1.0000      -0.989562       -26.9274    3-Ag
   6   1.0000      -0.486746       -13.2450    2-B1u
   7   1.0000      -0.486746       -13.2450    2-B2u
   8   1.0000      -0.415298       -11.3008    2-B3u
   9   0.0000       0.237359         6.4589    3-B1u
  10   0.0000       0.237359         6.4589    3-B2u
  11   0.0000       0.257811         7.0154    3-B3u
  12   0.0000       0.290496         7.9048    4-Ag
  13   0.0000       0.350741         9.5441    5-Ag

                 SPIN DOWN ORBITALS
  NO   OCC          E(Eh)            E(eV)    Irrep
   0   1.0000     -91.993811     -2503.2789    1-Ag
   1   1.0000      -8.993822      -244.7343    2-Ag
   2   1.0000      -6.674984      -181.6356    1-B3u
   3   1.0000      -6.658793      -181.1950    1-B2u
   4   1.0000      -6.658793      -181.1950    1-B1u
   5   1.0000      -0.773736       -21.0544    3-Ag
   6   1.0000      -0.379343       -10.3224    2-B3u
   7   0.0000       0.007528         0.2048    2-B2u
   8   0.0000       0.007528         0.2048    2-B1u
   9   0.0000       0.263970         7.1830    3-B3u
  10   0.0000       0.294000         8.0001    3-B2u
  11   0.0000       0.294000         8.0001    3-B1u

MULLIKEN ATOMIC CHARGES AND SPIN POPULATIONS
--------------------------------------------
   0 S :   -0.000000    2.000000
Sum of atomic charges         :   -0.0000000

LOEWDIN ATOMIC CHARGES AND SPIN POPULATIONS
-------------------------------------------
   0 S :   -0.000000    2.000000

FINAL SINGLE POINT ENERGY      -397.512995840633

DIPOLE MOMENT
-------------
                                X             Y             Z
Electronic contribution:      0.00000      -0.00000       0.00000
Nuclear contribution   :      0.00000       0.00000       0.00000
                        -----------------------------------------
Total Dipole Moment    :      0.00000      -0.00000       0.00000
                        -----------------------------------------
Magnitude (a.u.)       :      0.00000
Magnitude (Debye)      :      0.00000

                             ****ORCA TERMINATED NORMALLY****
TOTAL RUN TIME: 0 days 0 hours 0 minutes 6 seconds 20 msec
