                         Program Version 4.0.1.2 - RELEASE -
|  1> # ================================================================
|  2> # Orca input file
|  3> # ================================================================
|  4> ! HF def2-QZVP VeryTightSCF UseSym
|  5>
|  6> ! PAL4
|  7>
|  8> #%scf
|  9> #  STABPerform true
| 10> #  STABRestartUHFifUnstable true
| 11> #end
| 12>
| 13>
| 14>
| 15> * xyzfile 0 4 ../../../../chem_database/Co.xyz
| 16>
| 17>                          ****END OF INPUT****

CARTESIAN COORDINATES (ANGSTROEM)
---------------------------------
  Co     0.000000    0.000000    0.000000

 Total Charge           Charge          ....    0
 Multiplicity           Mult            ....    4
 Number of Electrons    NEL             ....   27
 Basis Dimension        Dim             ....   84

ORBITAL ENERGIES
----------------
                 SPIN UP ORBITALS
  NO   OCC          E(Eh)            E(eV)    Irrep
   0   1.0000    -282.856921     -7696.9281    1-Ag
   1   1.0000     -34.665999      -943.3098    2-Ag
   2   1.0000     -29.920859      -814.1880    1-B3u
   3   1.0000     -29.920859      -814.1880    1-B1u
   4   1.0000     -29.920859      -814.1880    1-B2u
   5   1.0000      -4.393094      -119.5422    3-Ag
   6   1.0000      -2.907487       -79.1167    2-B3u
   7   1.0000      -2.907487       -79.1167    2-B1u
   8   1.0000      -2.907487       -79.1167    2-B2u
   9   1.0000      -0.498785       -13.5726    4-Ag
  10   1.0000      -0.498785       -13.5726    5-Ag
  11   1.0000      -0.446314       -12.1448    1-B2g
  12   1.0000      -0.446314       -12.1448    1-B1g
  13   1.0000      -0.446314       -12.1448    1-B3g
  14   1.0000      -0.232382        -6.3234    6-Ag
  15   0.0000       0.035498         0.9660    3-B3u
  16   0.0000       0.035498         0.9660    3-B1u
  17   0.0000       0.035498         0.9660    3-B2u
  18   0.0000       0.107648         2.9292    7-Ag
  19   0.0000       0.164440         4.4746    4-B1u

                 SPIN DOWN ORBITALS
  NO   OCC          E(Eh)            E(eV)    Irrep
   0   1.0000    -282.854161     -7696.8530    1-Ag
   1   1.0000     -34.601405      -941.5521    2-Ag
   2   1.0000     -29.859063      -812.5064    1-B3u
   3   1.0000     -29.859063      -812.5064    1-B1u
   4   1.0000     -29.859063      -812.5064    1-B2u
   5   1.0000      -4.210317      -114.5685    3-Ag
   6   1.0000      -2.692932       -73.2784    2-B3u
   7   1.0000      -2.692932       -73.2784    2-B1u
   8   1.0000      -2.692932       -73.2784    2-B2u
   9   1.0000      -0.379239       -10.3196    1-B2g
  10   1.0000      -0.379239       -10.3196    1-B3g
  11   1.0000      -0.379239       -10.3196    1-B1g
  12   0.0000       0.017288         0.4704    4-Ag
  13   0.0000       0.058045         1.5795    3-B2u
  14   0.0000       0.058045         1.5795    3-B3u
  15   0.0000       0.058045         1.5795    3-B1u
  16   0.0000       0.150681         4.1002    5-Ag

MULLIKEN ATOMIC CHARGES AND SPIN POPULATIONS
--------------------------------------------
   0 Co:   -0.000000    3.000000
Sum of atomic charges         :   -0.0000000

LOEWDIN ATOMIC CHARGES AND SPIN POPULATIONS
-------------------------------------------
   0 Co:   -0.000000    3.000000

FINAL SINGLE POINT ENERGY     -1381.366060093962

DIPOLE MOMENT
-------------
                                X             Y             Z
Electronic contribution:     -0.00000      -0.00000       0.00000
Nuclear contribution   :      0.00000       0.00000       0.00000
                        -----------------------------------------
Total Dipole Moment    :     -0.00000      -0.00000       0.00000
                        -----------------------------------------
Magnitude (a.u.)       :      0.00000
Magnitude (Debye)      :      0.00000

                             ****ORCA TERMINATED NORMALLY****
TOTAL RUN TIME: 0 days 0 hours 0 minutes 9 seconds 685 msec
