                         Program Version 4.0.1.2 - RELEASE -
|  1> # ================================================================
|  2> # Orca input file
|  3> # ================================================================
|  4> ! HF def2-QZVP VeryTightSCF UseSym
|  5>
|  6> ! PAL4
|  7>
|  8> %scf
|  9>   STABPerform true
| 10> #  STABRestartUHFifUnstable true
| 11> end
| 12>
| 13>
| 14>
| 15> * xyzfile 0 3 ../../../../chem_database/Si.xyz
| 16>
| 17>                          ****END OF INPUT****

CARTESIAN COORDINATES (ANGSTROEM)
---------------------------------
  Si     0.000000    0.000000    0.000000

 Total Charge           Charge          ....    0
 Multiplicity           Mult            ....    3
 Number of Electrons    NEL             ....   14
 Basis Dimension        Dim             ....   70

ORBITAL ENERGIES
----------------
                 SPIN UP ORBITALS
  NO   OCC          E(Eh)            E(eV)    Irrep
   0   1.0000     -68.816180     -1872.5835    1-Ag
   1   1.0000      -6.160559      -167.6373    2-Ag
   2   1.0000      -4.268871      -116.1619    1-B2u
   3   1.0000      -4.268871      -116.1619    1-B3u
   4   1.0000      -4.258088      -115.8685    1-B1u
   5   1.0000      -0.619804       -16.8657    3-Ag
   6   1.0000      -0.301353        -8.2002    2-B3u
   7   1.0000      -0.301353        -8.2002    2-B2u
   8   0.0000      -0.006534        -0.1778    2-B1u
   9   0.0000       0.177033         4.8173    4-Ag
  10   0.0000       0.179129         4.8743    3-B2u
  11   0.0000       0.179129         4.8743    3-B3u
  12   0.0000       0.200938         5.4678    3-B1u

                 SPIN DOWN ORBITALS
  NO   OCC          E(Eh)            E(eV)    Irrep
   0   1.0000     -68.805927     -1872.3045    1-Ag
   1   1.0000      -6.149630      -167.3399    2-Ag
   2   1.0000      -4.253004      -115.7301    1-B1u
   3   1.0000      -4.239750      -115.3695    1-B3u
   4   1.0000      -4.239750      -115.3695    1-B2u
   5   1.0000      -0.462717       -12.5912    3-Ag
   6   0.0000       0.011735         0.3193    2-B1u
   7   0.0000       0.051807         1.4097    2-B3u
   8   0.0000       0.051807         1.4097    2-B2u
   9   0.0000       0.200976         5.4688    4-Ag
  10   0.0000       0.208962         5.6862    3-B1u

MULLIKEN ATOMIC CHARGES AND SPIN POPULATIONS
--------------------------------------------
   0 Si:    0.000000    2.000000
Sum of atomic charges         :    0.0000000

LOEWDIN ATOMIC CHARGES AND SPIN POPULATIONS
-------------------------------------------
   0 Si:    0.000000    2.000000

FINAL SINGLE POINT ENERGY      -288.858728995085

DIPOLE MOMENT
-------------
                                X             Y             Z
Electronic contribution:     -0.00000      -0.00000      -0.00000
Nuclear contribution   :      0.00000       0.00000       0.00000
                        -----------------------------------------
Total Dipole Moment    :     -0.00000      -0.00000      -0.00000
                        -----------------------------------------
Magnitude (a.u.)       :      0.00000
Magnitude (Debye)      :      0.00000

                             ****ORCA TERMINATED NORMALLY****
TOTAL RUN TIME: 0 days 0 hours 0 minutes 5 seconds 776 msec
