                         Program Version 4.0.1.2 - RELEASE -
|  1> # ================================================================
|  2> # Orca input file
|  3> # ================================================================
|  4> ! HF cc-pVQZ VeryTightSCF UseSym
|  5>
|  6> ! PAL4
|  7>
|  8> %scf
|  9>   STABPerform true
| 10> #  STABRestartUHFifUnstable true
| 11> end
| 12>
| 13>
| 14>
| 15> * xyzfile 0 2 ../../../../chem_database/B.xyz
| 16>
| 17>                          ****END OF INPUT****

CARTESIAN COORDINATES (ANGSTROEM)
---------------------------------
  B      0.000000    0.000000    0.000000

 Total Charge           Charge          ....    0
 Multiplicity           Mult            ....    2
 Number of Electrons    NEL             ....    5
 Basis Dimension        Dim             ....   55

ORBITAL ENERGIES
----------------
                 SPIN UP ORBITALS
  NO   OCC          E(Eh)            E(eV)    Irrep
   0   1.0000      -7.701185      -209.5599    1-Ag
   1   1.0000      -0.545145       -14.8341    2-Ag
   2   1.0000      -0.318669        -8.6714    1-B1u
   3   0.0000       0.041830         1.1382    1-B2u
   4   0.0000       0.041830         1.1382    1-B3u
   5   0.0000       0.214696         5.8422    2-B1u
   6   0.0000       0.217081         5.9071    3-Ag
   7   0.0000       0.262725         7.1491    2-B3u

                 SPIN DOWN ORBITALS
  NO   OCC          E(Eh)            E(eV)    Irrep
   0   1.0000      -7.686051      -209.1481    1-Ag
   1   1.0000      -0.446133       -12.1399    2-Ag
   2   0.0000       0.051204         1.3933    1-B2u
   3   0.0000       0.051204         1.3933    1-B3u
   4   0.0000       0.088890         2.4188    1-B1u
   5   0.0000       0.233346         6.3497    3-Ag
   6   0.0000       0.271972         7.4007    2-B3u

MULLIKEN ATOMIC CHARGES AND SPIN POPULATIONS
--------------------------------------------
   0 B :    0.000000    1.000000
Sum of atomic charges         :    0.0000000

LOEWDIN ATOMIC CHARGES AND SPIN POPULATIONS
-------------------------------------------
   0 B :    0.000000    1.000000

FINAL SINGLE POINT ENERGY       -24.532967143095

DIPOLE MOMENT
-------------
                                X             Y             Z
Electronic contribution:      0.00000      -0.00000       0.00000
Nuclear contribution   :      0.00000       0.00000       0.00000
                        -----------------------------------------
Total Dipole Moment    :      0.00000      -0.00000       0.00000
                        -----------------------------------------
Magnitude (a.u.)       :      0.00000
Magnitude (Debye)      :      0.00000

                             ****ORCA TERMINATED NORMALLY****
TOTAL RUN TIME: 0 days 0 hours 0 minutes 4 seconds 197 msec
