                         Program Version 4.0.1.2 - RELEASE -
|  1> # ================================================================
|  2> # Orca input file
|  3> # ================================================================
|  4> ! HF def2-QZVP VeryTightSCF UseSym
|  5>
|  6> ! PAL4
|  7>
|  8> %scf
|  9>   STABPerform true
| 10> #  STABRestartUHFifUnstable true
| 11> end
| 12>
| 13>
| 14>
| 15> * xyzfile 0 3 ../../../../chem_database/C.xyz
| 16>
| 17>                          ****END OF INPUT****

CARTESIAN COORDINATES (ANGSTROEM)
---------------------------------
  C      0.000000    0.000000    0.000000

 Total Charge           Charge          ....    0
 Multiplicity           Mult            ....    3
 Number of Electrons    NEL             ....    6
 Basis Dimension        Dim             ....   57

ORBITAL ENERGIES
----------------
                 SPIN UP ORBITALS
  NO   OCC          E(Eh)            E(eV)    Irrep
   0   1.0000     -11.345296      -308.7212    1-Ag
   1   1.0000      -0.829049       -22.5596    2-Ag
   2   1.0000      -0.438929       -11.9439    1-B3u
   3   1.0000      -0.438929       -11.9439    1-B2u
   4   0.0000       0.024973         0.6795    1-B1u
   5   0.0000       0.212300         5.7770    2-B3u
   6   0.0000       0.212300         5.7770    2-B2u
   7   0.0000       0.255191         6.9441    2-B1u
   8   0.0000       0.290012         7.8916    3-Ag

                 SPIN DOWN ORBITALS
  NO   OCC          E(Eh)            E(eV)    Irrep
   0   1.0000     -11.300296      -307.4967    1-Ag
   1   1.0000      -0.583447       -15.8764    2-Ag
   2   0.0000       0.052294         1.4230    1-B1u
   3   0.0000       0.094210         2.5636    1-B3u
   4   0.0000       0.094210         2.5636    1-B2u
   5   0.0000       0.274295         7.4640    2-B1u
   6   0.0000       0.311945         8.4885    2-B2u

MULLIKEN ATOMIC CHARGES AND SPIN POPULATIONS
--------------------------------------------
   0 C :    0.000000    2.000000
Sum of atomic charges         :    0.0000000

LOEWDIN ATOMIC CHARGES AND SPIN POPULATIONS
-------------------------------------------
   0 C :    0.000000    2.000000

FINAL SINGLE POINT ENERGY       -37.693627213658

DIPOLE MOMENT
-------------
                                X             Y             Z
Electronic contribution:      0.00000      -0.00000      -0.00000
Nuclear contribution   :      0.00000       0.00000       0.00000
                        -----------------------------------------
Total Dipole Moment    :      0.00000      -0.00000      -0.00000
                        -----------------------------------------
Magnitude (a.u.)       :      0.00000
Magnitude (Debye)      :      0.00000

                             ****ORCA TERMINATED NORMALLY****
TOTAL RUN TIME: 0 days 0 hours 0 minutes 5 seconds 67 msec
