                         Program Version 4.0.1.2 - RELEASE -
|  1> # ================================================================
|  2> # Orca input file
|  3> # ================================================================
|  4> ! HF def2-QZVP VeryTightSCF UseSym
|  5>
|  6> ! PAL4
|  7>
|  8> %scf
|  9>   STABPerform true
| 10> #  STABRestartUHFifUnstable true
| 11> end
| 12>
| 13>
| 14>
| 15> * xyzfile 0 2 ../../../../chem_database/Cl.xyz
| 16>
| 17>                          ****END OF INPUT****

CARTESIAN COORDINATES (ANGSTROEM)
---------------------------------
  Cl     0.000000    0.000000    0.000000

 Total Charge           Charge          ....    0
 Multiplicity           Mult            ....    2
 Number of Electrons    NEL             ....   17
 Basis Dimension        Dim             ....   70

ORBITAL ENERGIES
----------------
                 SPIN UP ORBITALS
  NO   OCC          E(Eh)            E(eV)    Irrep
   0   1.0000    -104.889286     -2854.1826    1-Ag
   1   1.0000     -10.612050      -288.7686    2-Ag
   2   1.0000      -8.097794      -220.3522    1-B1u
   3   1.0000      -8.073505      -219.6912    1-B2u
   4   1.0000      -8.073505      -219.6912    1-B3u
   5   1.0000      -1.135935       -30.9104    3-Ag
   6   1.0000      -0.581646       -15.8274    2-B1u
   7   1.0000      -0.502356       -13.6698    2-B2u
   8   1.0000      -0.502356       -13.6698    2-B3u
   9   0.0000       0.260467         7.0877    3-B1u
  10   0.0000       0.280336         7.6283    3-B3u
  11   0.0000       0.280336         7.6283    3-B2u
  12   0.0000       0.362360         9.8603    4-Ag
  13   0.0000       0.437350        11.9009    5-Ag

                 SPIN DOWN ORBITALS
  NO   OCC          E(Eh)            E(eV)    Irrep
   0   1.0000    -104.877641     -2853.8657    1-Ag
   1   1.0000     -10.600870      -288.4643    2-Ag
   2   1.0000      -8.067463      -219.5268    1-B2u
   3   1.0000      -8.067463      -219.5268    1-B3u
   4   1.0000      -8.048161      -219.0016    1-B1u
   5   1.0000      -1.014290       -27.6002    3-Ag
   6   1.0000      -0.480740       -13.0816    2-B2u
   7   1.0000      -0.480740       -13.0816    2-B3u
   8   0.0000      -0.038271        -1.0414    2-B1u
   9   0.0000       0.283305         7.7091    3-B3u
  10   0.0000       0.283305         7.7091    3-B2u
  11   0.0000       0.309470         8.4211    3-B1u
  12   0.0000       0.378963        10.3121    4-Ag

MULLIKEN ATOMIC CHARGES AND SPIN POPULATIONS
--------------------------------------------
   0 Cl:   -0.000000    1.000000
Sum of atomic charges         :   -0.0000000

LOEWDIN ATOMIC CHARGES AND SPIN POPULATIONS
-------------------------------------------
   0 Cl:    0.000000    1.000000

FINAL SINGLE POINT ENERGY      -459.489540982616

DIPOLE MOMENT
-------------
                                X             Y             Z
Electronic contribution:     -0.00000       0.00000      -0.00000
Nuclear contribution   :      0.00000       0.00000       0.00000
                        -----------------------------------------
Total Dipole Moment    :     -0.00000       0.00000      -0.00000
                        -----------------------------------------
Magnitude (a.u.)       :      0.00000
Magnitude (Debye)      :      0.00000

                             ****ORCA TERMINATED NORMALLY****
TOTAL RUN TIME: 0 days 0 hours 0 minutes 6 seconds 435 msec
