                         Program Version 4.0.1.2 - RELEASE -
|  1> # ================================================================
|  2> # Orca input file
|  3> # ================================================================
|  4> ! HF def2-QZVP VeryTightSCF UseSym
|  5>
|  6> ! PAL4
|  7>
|  8> #%scf
|  9> #  STABPerform true
| 10> #  STABRestartUHFifUnstable true
| 11> #end
| 12>
| 13>
| 14>
| 15> * xyzfile 0 3 ../../../../chem_database/Se.xyz
| 16>
| 17>                          ****END OF INPUT****

CARTESIAN COORDINATES (ANGSTROEM)
---------------------------------
  Se     0.000000    0.000000    0.000000

 Total Charge           Charge          ....    0
 Multiplicity           Mult            ....    3
 Number of Electrons    NEL             ....   34
 Basis Dimension        Dim             ....   75

ORBITAL ENERGIES
----------------
                 SPIN UP ORBITALS
  NO   OCC          E(Eh)            E(eV)    Irrep
   0   1.0000    -460.870811    -12540.9323    1-Ag
   1   1.0000     -60.670332     -1650.9237    2-Ag
   2   1.0000     -54.274732     -1476.8905    1-B1u
   3   1.0000     -54.274732     -1476.8905    1-B3u
   4   1.0000     -54.268413     -1476.7186    1-B2u
   5   1.0000      -8.937842      -243.2111    3-Ag
   6   1.0000      -6.676526      -181.6775    2-B3u
   7   1.0000      -6.676526      -181.6775    2-B1u
   8   1.0000      -6.656540      -181.1337    2-B2u
   9   1.0000      -2.662731       -72.4566    4-Ag
  10   1.0000      -2.662731       -72.4566    1-B2g
  11   1.0000      -2.648626       -72.0728    1-B1g
  12   1.0000      -2.648626       -72.0728    1-B3g
  13   1.0000      -2.644016       -71.9473    5-Ag
  14   1.0000      -0.936218       -25.4758    6-Ag
  15   1.0000      -0.447815       -12.1857    3-B3u
  16   1.0000      -0.447815       -12.1857    3-B1u
  17   1.0000      -0.384139       -10.4530    3-B2u
  18   0.0000       0.237505         6.4628    4-B3u
  19   0.0000       0.237505         6.4628    4-B1u
  20   0.0000       0.256742         6.9863    7-Ag
  21   0.0000       0.258370         7.0306    4-B2u
  22   0.0000       0.369722        10.0607    2-B2g

                 SPIN DOWN ORBITALS
  NO   OCC          E(Eh)            E(eV)    Irrep
   0   1.0000    -460.863748    -12540.7402    1-Ag
   1   1.0000     -60.666932     -1650.8311    2-Ag
   2   1.0000     -54.266352     -1476.6625    1-B2u
   3   1.0000     -54.264181     -1476.6034    1-B3u
   4   1.0000     -54.264181     -1476.6034    1-B1u
   5   1.0000      -8.924721      -242.8540    3-Ag
   6   1.0000      -6.653775      -181.0584    2-B2u
   7   1.0000      -6.650647      -180.9733    2-B1u
   8   1.0000      -6.650647      -180.9733    2-B3u
   9   1.0000      -2.649376       -72.0932    4-Ag
  10   1.0000      -2.649376       -72.0932    1-B2g
  11   1.0000      -2.641856       -71.8886    1-B1g
  12   1.0000      -2.641856       -71.8886    1-B3g
  13   1.0000      -2.639489       -71.8241    5-Ag
  14   1.0000      -0.741674       -20.1820    6-Ag
  15   1.0000      -0.348863        -9.4930    3-B2u
  16   0.0000      -0.000545        -0.0148    3-B1u
  17   0.0000      -0.000545        -0.0148    3-B3u
  18   0.0000       0.265028         7.2118    4-B2u
  19   0.0000       0.284663         7.7461    7-Ag
  20   0.0000       0.289626         7.8811    4-B1u

MULLIKEN ATOMIC CHARGES AND SPIN POPULATIONS
--------------------------------------------
   0 Se:    0.000000    2.000000
Sum of atomic charges         :    0.0000000

LOEWDIN ATOMIC CHARGES AND SPIN POPULATIONS
-------------------------------------------
   0 Se:    0.000000    2.000000

FINAL SINGLE POINT ENERGY     -2399.874609297291

DIPOLE MOMENT
-------------
                                X             Y             Z
Electronic contribution:      0.00000      -0.00000       0.00000
Nuclear contribution   :      0.00000       0.00000       0.00000
                        -----------------------------------------
Total Dipole Moment    :      0.00000      -0.00000       0.00000
                        -----------------------------------------
Magnitude (a.u.)       :      0.00000
Magnitude (Debye)      :      0.00000

                             ****ORCA TERMINATED NORMALLY****
TOTAL RUN TIME: 0 days 0 hours 0 minutes 7 seconds 939 msec
