                         Program Version 4.0.1.2 - RELEASE -
|  1> # ================================================================
|  2> # Orca input file
|  3> # ================================================================
|  4> ! HF cc-pVQZ VeryTightSCF UseSym
|  5>
|  6> ! PAL4
|  7>
|  8> %scf
|  9>   STABPerform true
| 10> #  STABRestartUHFifUnstable true
| 11> end
| 12>
| 13>
| 14>
| 15> * xyzfile 0 3 ../../../../chem_database/C.xyz
| 16>
| 17>                          ****END OF INPUT****

CARTESIAN COORDINATES (ANGSTROEM)
---------------------------------
  C      0.000000    0.000000    0.000000

 Total Charge           Charge          ....    0
 Multiplicity           Mult            ....    3
 Number of Electrons    NEL             ....    6
 Basis Dimension        Dim             ....   55

ORBITAL ENERGIES
----------------
                 SPIN UP ORBITALS
  NO   OCC          E(Eh)            E(eV)    Irrep
   0   1.0000     -11.345380      -308.7235    1-Ag
   1   1.0000      -0.828977       -22.5576    2-Ag
   2   1.0000      -0.438744       -11.9388    1-B1u
   3   1.0000      -0.438744       -11.9388    1-B3u
   4   0.0000       0.030316         0.8249    1-B2u
   5   0.0000       0.313304         8.5254    3-Ag
   6   0.0000       0.319654         8.6982    2-B1u
   7   0.0000       0.319654         8.6982    2-B3u
   8   0.0000       0.375212        10.2100    2-B2u

                 SPIN DOWN ORBITALS
  NO   OCC          E(Eh)            E(eV)    Irrep
   0   1.0000     -11.300093      -307.4912    1-Ag
   1   1.0000      -0.583373       -15.8744    2-Ag
   2   0.0000       0.060909         1.6574    1-B2u
   3   0.0000       0.110026         2.9939    1-B1u
   4   0.0000       0.110026         2.9939    1-B3u
   5   0.0000       0.353742         9.6258    3-Ag
   6   0.0000       0.398379        10.8405    2-B2u

MULLIKEN ATOMIC CHARGES AND SPIN POPULATIONS
--------------------------------------------
   0 C :   -0.000000    2.000000
Sum of atomic charges         :   -0.0000000

LOEWDIN ATOMIC CHARGES AND SPIN POPULATIONS
-------------------------------------------
   0 C :   -0.000000    2.000000

FINAL SINGLE POINT ENERGY       -37.693307794719

DIPOLE MOMENT
-------------
                                X             Y             Z
Electronic contribution:      0.00000      -0.00000       0.00000
Nuclear contribution   :      0.00000       0.00000       0.00000
                        -----------------------------------------
Total Dipole Moment    :      0.00000      -0.00000       0.00000
                        -----------------------------------------
Magnitude (a.u.)       :      0.00000
Magnitude (Debye)      :      0.00000

                             ****ORCA TERMINATED NORMALLY****
TOTAL RUN TIME: 0 days 0 hours 0 minutes 4 seconds 70 msec
