                         Program Version 4.0.1.2 - RELEASE -
|  1> # ================================================================
|  2> # Orca input file
|  3> # ================================================================
|  4> ! HF def2-QZVP VeryTightSCF UseSym
|  5>
|  6> ! PAL4
|  7>
|  8> #%scf
|  9> #  STABPerform true
| 10> #  STABRestartUHFifUnstable true
| 11> #end
| 12>
| 13>
| 14>
| 15> * xyzfile 0 2 ../../../../chem_database/Cu.xyz
| 16>
| 17>                          ****END OF INPUT****

CARTESIAN COORDINATES (ANGSTROEM)
---------------------------------
  Cu     0.000000    0.000000    0.000000

 Total Charge           Charge          ....    0
 Multiplicity           Mult            ....    2
 Number of Electrons    NEL             ....   29
 Basis Dimension        Dim             ....   84

ORBITAL ENERGIES
----------------
                 SPIN UP ORBITALS
  NO   OCC          E(Eh)            E(eV)    Irrep
   0   1.0000    -328.794678     -8946.9581    1-Ag
   1   1.0000     -40.819190     -1110.7466    2-Ag
   2   1.0000     -35.617253      -969.1947    1-B1u
   3   1.0000     -35.617253      -969.1947    1-B2u
   4   1.0000     -35.617253      -969.1947    1-B3u
   5   1.0000      -5.012292      -136.3914    3-Ag
   6   1.0000      -3.322091       -90.3987    2-B1u
   7   1.0000      -3.322091       -90.3987    2-B3u
   8   1.0000      -3.322091       -90.3987    2-B2u
   9   1.0000      -0.488988       -13.3060    1-B2g
  10   1.0000      -0.488988       -13.3060    1-B3g
  11   1.0000      -0.488988       -13.3060    1-B1g
  12   1.0000      -0.488988       -13.3060    4-Ag
  13   1.0000      -0.488988       -13.3060    5-Ag
  14   1.0000      -0.239622        -6.5204    6-Ag
  15   0.0000       0.038601         1.0504    3-B2u
  16   0.0000       0.038601         1.0504    3-B3u
  17   0.0000       0.038601         1.0504    3-B1u
  18   0.0000       0.097031         2.6403    7-Ag
  19   0.0000       0.172861         4.7038    4-B2u

                 SPIN DOWN ORBITALS
  NO   OCC          E(Eh)            E(eV)    Irrep
   0   1.0000    -328.792867     -8946.9088    1-Ag
   1   1.0000     -40.819908     -1110.7662    2-Ag
   2   1.0000     -35.619898      -969.2667    1-B1u
   3   1.0000     -35.619898      -969.2667    1-B2u
   4   1.0000     -35.619898      -969.2667    1-B3u
   5   1.0000      -5.011573      -136.3718    3-Ag
   6   1.0000      -3.327357       -90.5420    2-B3u
   7   1.0000      -3.327357       -90.5420    2-B2u
   8   1.0000      -3.327357       -90.5420    2-B1u
   9   1.0000      -0.493225       -13.4213    1-B1g
  10   1.0000      -0.493225       -13.4213    1-B2g
  11   1.0000      -0.493225       -13.4213    1-B3g
  12   1.0000      -0.493225       -13.4213    4-Ag
  13   1.0000      -0.493225       -13.4213    5-Ag
  14   0.0000       0.012658         0.3444    6-Ag
  15   0.0000       0.060231         1.6390    3-B2u
  16   0.0000       0.060231         1.6390    3-B3u
  17   0.0000       0.060231         1.6390    3-B1u
  18   0.0000       0.134174         3.6511    7-Ag

MULLIKEN ATOMIC CHARGES AND SPIN POPULATIONS
--------------------------------------------
   0 Cu:   -0.000000    1.000000
Sum of atomic charges         :   -0.0000000

LOEWDIN ATOMIC CHARGES AND SPIN POPULATIONS
-------------------------------------------
   0 Cu:    0.000000    1.000000

FINAL SINGLE POINT ENERGY     -1638.963228531182

DIPOLE MOMENT
-------------
                                X             Y             Z
Electronic contribution:      0.00000      -0.00000       0.00000
Nuclear contribution   :      0.00000       0.00000       0.00000
                        -----------------------------------------
Total Dipole Moment    :      0.00000      -0.00000       0.00000
                        -----------------------------------------
Magnitude (a.u.)       :      0.00000
Magnitude (Debye)      :      0.00000

                             ****ORCA TERMINATED NORMALLY****
TOTAL RUN TIME: 0 days 0 hours 0 minutes 8 seconds 197 msec
