                         Program Version 4.0.1.2 - RELEASE -
|  1> # ================================================================
|  2> # Orca input file
|  3> # ================================================================
|  4> ! HF def2-QZVP VeryTightSCF KDIIS UseSym
|  5>
|  6> ! PAL4
|  7>
|  8> #%scf
|  9> #  STABPerform true
| 10> #  STABRestartUHFifUnstable true
| 11> #end
| 12>
| 13>
| 14>
| 15> * xyzfile 0 3 ../../../../chem_database/Ni.xyz
| 16>
| 17>                          ****END OF INPUT****

CARTESIAN COORDINATES (ANGSTROEM)
---------------------------------
  Ni     0.000000    0.000000    0.000000

 Total Charge           Charge          ....    0
 Multiplicity           Mult            ....    3
 Number of Electrons    NEL             ....   28
 Basis Dimension        Dim             ....   84

ORBITAL ENERGIES
----------------
                 SPIN UP ORBITALS
  NO   OCC          E(Eh)            E(eV)    Irrep
   0   1.0000    -305.399230     -8310.3355    1-Ag
   1   1.0000     -37.690151     -1025.6012    2-Ag
   2   1.0000     -32.741778      -890.9491    1-B1u
   3   1.0000     -32.705715      -889.9677    1-B2u
   4   1.0000     -32.704340      -889.9303    1-B3u
   5   1.0000      -4.705522      -128.0438    3-Ag
   6   1.0000      -3.171581       -86.3031    2-B1u
   7   1.0000      -3.093191       -84.1700    2-B2u
   8   1.0000      -3.090241       -84.0897    2-B3u
   9   1.0000      -0.548628       -14.9289    4-Ag
  10   1.0000      -0.483505       -13.1568    1-B3g
  11   1.0000      -0.482399       -13.1267    1-B2g
  12   1.0000      -0.452667       -12.3177    1-B1g
  13   1.0000      -0.452655       -12.3174    5-Ag
  14   1.0000      -0.236294        -6.4299    6-Ag
  15   0.0000       0.035169         0.9570    3-B1u
  16   0.0000       0.038844         1.0570    3-B2u
  17   0.0000       0.038975         1.0606    3-B3u
  18   0.0000       0.114483         3.1152    7-Ag
  19   0.0000       0.168024         4.5722    4-B1u

                 SPIN DOWN ORBITALS
  NO   OCC          E(Eh)            E(eV)    Irrep
   0   1.0000    -305.396768     -8310.2686    1-Ag
   1   1.0000     -37.653558     -1024.6054    2-Ag
   2   1.0000     -32.683829      -889.3722    1-B3u
   3   1.0000     -32.683763      -889.3704    1-B2u
   4   1.0000     -32.682247      -889.3291    1-B1u
   5   1.0000      -4.605567      -125.3239    3-Ag
   6   1.0000      -3.024221       -82.2932    2-B3u
   7   1.0000      -3.022173       -82.2375    2-B2u
   8   1.0000      -2.967240       -80.7427    2-B1u
   9   1.0000      -0.458635       -12.4801    1-B3g
  10   1.0000      -0.456507       -12.4222    1-B2g
  11   1.0000      -0.400681       -10.9031    1-B1g
  12   1.0000      -0.400661       -10.9025    4-Ag
  13   0.0000       0.016068         0.4372    5-Ag
  14   0.0000       0.059492         1.6188    3-B1u
  15   0.0000       0.060348         1.6421    3-B2u
  16   0.0000       0.060382         1.6431    3-B3u
  17   0.0000       0.155525         4.2321    6-Ag

MULLIKEN ATOMIC CHARGES AND SPIN POPULATIONS
--------------------------------------------
   0 Ni:   -0.000000    2.000000
Sum of atomic charges         :   -0.0000000

LOEWDIN ATOMIC CHARGES AND SPIN POPULATIONS
-------------------------------------------
   0 Ni:   -0.000000    2.000000

FINAL SINGLE POINT ENERGY     -1506.829178701823

DIPOLE MOMENT
-------------
                                X             Y             Z
Electronic contribution:     -0.00000      -0.00000       0.00000
Nuclear contribution   :      0.00000       0.00000       0.00000
                        -----------------------------------------
Total Dipole Moment    :     -0.00000      -0.00000       0.00000
                        -----------------------------------------
Magnitude (a.u.)       :      0.00000
Magnitude (Debye)      :      0.00000

                             ****ORCA TERMINATED NORMALLY****
TOTAL RUN TIME: 0 days 0 hours 0 minutes 7 seconds 74 msec
