                         Program Version 4.0.1.2 - RELEASE -
|  1> # ================================================================
|  2> # Orca input file
|  3> # ================================================================
|  4> ! HF def2-QZVP VeryTightSCF
|  5>
|  6> ! PAL4
|  7>
|  8> %scf
|  9>   STABPerform true
| 10> #  STABRestartUHFifUnstable true
| 11> end
| 12>
| 13>
| 14>
| 15> * xyzfile 0 4 ../../../../chem_database/V.xyz
| 16>
| 17>                          ****END OF INPUT****

CARTESIAN COORDINATES (ANGSTROEM)
---------------------------------
  V      0.000000    0.000000    0.000000

 Total Charge           Charge          ....    0
 Multiplicity           Mult            ....    4
 Number of Electrons    NEL             ....   23
 Basis Dimension        Dim             ....   84

ORBITAL ENERGIES
----------------
                 SPIN UP ORBITALS
  NO   OCC          E(Eh)            E(eV)
   0   1.0000    -201.503412     -5483.1866
   1   1.0000     -23.904404      -650.4719
   2   1.0000     -20.052481      -545.6557
   3   1.0000     -20.052481      -545.6557
   4   1.0000     -20.052481      -545.6557
   5   1.0000      -3.288367       -89.4810
   6   1.0000      -2.149468       -58.4900
   7   1.0000      -2.149468       -58.4900
   8   1.0000      -2.149467       -58.4900
   9   1.0000      -0.515347       -14.0233
  10   1.0000      -0.515346       -14.0233
  11   1.0000      -0.515346       -14.0233
  12   1.0000      -0.246783        -6.7153
  13   0.0000       0.023999         0.6531
  14   0.0000       0.023999         0.6531
  15   0.0000       0.023999         0.6531
  16   0.0000       0.075810         2.0629
  17   0.0000       0.108061         2.9405

                 SPIN DOWN ORBITALS
  NO   OCC          E(Eh)            E(eV)
   0   1.0000    -201.502858     -5483.1715
   1   1.0000     -23.844184      -648.8332
   2   1.0000     -19.991979      -544.0094
   3   1.0000     -19.991979      -544.0094
   4   1.0000     -19.991979      -544.0094
   5   1.0000      -3.076783       -83.7235
   6   1.0000      -1.889924       -51.4275
   7   1.0000      -1.889924       -51.4275
   8   1.0000      -1.889924       -51.4275
   9   1.0000      -0.215785        -5.8718
  10   0.0000       0.025977         0.7069
  11   0.0000       0.025977         0.7069
  12   0.0000       0.025977         0.7069
  13   0.0000       0.082297         2.2394
  14   0.0000       0.123451         3.3593

MULLIKEN ATOMIC CHARGES AND SPIN POPULATIONS
--------------------------------------------
   0 V :   -0.000000    3.000000
Sum of atomic charges         :   -0.0000000

LOEWDIN ATOMIC CHARGES AND SPIN POPULATIONS
-------------------------------------------
   0 V :   -0.000000    3.000000

FINAL SINGLE POINT ENERGY      -942.892360108381

DIPOLE MOMENT
-------------
                                X             Y             Z
Electronic contribution:      0.00000       0.00000       0.00000
Nuclear contribution   :      0.00000       0.00000       0.00000
                        -----------------------------------------
Total Dipole Moment    :      0.00000       0.00000       0.00000
                        -----------------------------------------
Magnitude (a.u.)       :      0.00000
Magnitude (Debye)      :      0.00000

                             ****ORCA TERMINATED NORMALLY****
TOTAL RUN TIME: 0 days 0 hours 1 minutes 21 seconds 527 msec
