                         Program Version 4.0.1.2 - RELEASE -
|  1> # ================================================================
|  2> # Orca input file
|  3> # ================================================================
|  4> ! HF def2-QZVP VeryTightSCF UseSym
|  5>
|  6> ! PAL4
|  7>
|  8> %scf
|  9>   STABPerform true
| 10> #  STABRestartUHFifUnstable true
| 11> end
| 12>
| 13>
| 14>
| 15> * xyzfile 0 2 ../../../../chem_database/Al.xyz
| 16>
| 17>                          ****END OF INPUT****

CARTESIAN COORDINATES (ANGSTROEM)
---------------------------------
  Al     0.000000    0.000000    0.000000

 Total Charge           Charge          ....    0
 Multiplicity           Mult            ....    2
 Number of Electrons    NEL             ....   13
 Basis Dimension        Dim             ....   70

ORBITAL ENERGIES
----------------
                 SPIN UP ORBITALS
  NO   OCC          E(Eh)            E(eV)    Irrep
   0   1.0000     -58.500863     -1591.8894    1-Ag
   1   1.0000      -4.910653      -133.6256    2-Ag
   2   1.0000      -3.225124       -87.7601    1-B3u
   3   1.0000      -3.217818       -87.5613    1-B2u
   4   1.0000      -3.217818       -87.5613    1-B1u
   5   1.0000      -0.425491       -11.5782    3-Ag
   6   1.0000      -0.218488        -5.9454    2-B3u
   7   0.0000       0.016947         0.4612    2-B2u
   8   0.0000       0.016947         0.4612    2-B1u
   9   0.0000       0.129665         3.5284    4-Ag
  10   0.0000       0.132547         3.6068    3-B3u
  11   0.0000       0.155141         4.2216    3-B1u

                 SPIN DOWN ORBITALS
  NO   OCC          E(Eh)            E(eV)    Irrep
   0   1.0000     -58.497797     -1591.8060    1-Ag
   1   1.0000      -4.907217      -133.5322    2-Ag
   2   1.0000      -3.216252       -87.5187    1-B1u
   3   1.0000      -3.216252       -87.5187    1-B2u
   4   1.0000      -3.206899       -87.2642    1-B3u
   5   1.0000      -0.363315        -9.8863    3-Ag
   6   0.0000       0.023232         0.6322    2-B2u
   7   0.0000       0.023232         0.6322    2-B1u
   8   0.0000       0.053465         1.4548    2-B3u
   9   0.0000       0.139497         3.7959    4-Ag
  10   0.0000       0.158212         4.3052    3-B1u

MULLIKEN ATOMIC CHARGES AND SPIN POPULATIONS
--------------------------------------------
   0 Al:    0.000000    1.000000
Sum of atomic charges         :    0.0000000

LOEWDIN ATOMIC CHARGES AND SPIN POPULATIONS
-------------------------------------------
   0 Al:    0.000000    1.000000

FINAL SINGLE POINT ENERGY      -241.880670655468

DIPOLE MOMENT
-------------
                                X             Y             Z
Electronic contribution:     -0.00000       0.00000       0.00000
Nuclear contribution   :      0.00000       0.00000       0.00000
                        -----------------------------------------
Total Dipole Moment    :     -0.00000       0.00000       0.00000
                        -----------------------------------------
Magnitude (a.u.)       :      0.00000
Magnitude (Debye)      :      0.00000

                             ****ORCA TERMINATED NORMALLY****
TOTAL RUN TIME: 0 days 0 hours 0 minutes 6 seconds 376 msec
