                         Program Version 4.0.1.2 - RELEASE -
|  1> # ================================================================
|  2> # Orca input file
|  3> # ================================================================
|  4> ! HF def2-QZVP VeryTightSCF UseSym
|  5>
|  6> ! PAL4
|  7>
|  8> %scf
|  9>   STABPerform true
| 10> #  STABRestartUHFifUnstable true
| 11> end
| 12>
| 13>
| 14>
| 15> * xyzfile 0 2 ../../../../chem_database/Na.xyz
| 16>
| 17>                          ****END OF INPUT****

CARTESIAN COORDINATES (ANGSTROEM)
---------------------------------
  Na     0.000000    0.000000    0.000000

 Total Charge           Charge          ....    0
 Multiplicity           Mult            ....    2
 Number of Electrons    NEL             ....   11
 Basis Dimension        Dim             ....   46

ORBITAL ENERGIES
----------------
                 SPIN UP ORBITALS
  NO   OCC          E(Eh)            E(eV)    Irrep
   0   1.0000     -40.479852     -1101.5128    1-Ag
   1   1.0000      -2.800454       -76.2042    2-Ag
   2   1.0000      -1.518997       -41.3340    1-B3u
   3   1.0000      -1.518997       -41.3340    1-B2u
   4   1.0000      -1.518997       -41.3340    1-B1u
   5   1.0000      -0.182187        -4.9576    3-Ag
   6   0.0000       0.019042         0.5182    2-B2u
   7   0.0000       0.019042         0.5182    2-B3u
   8   0.0000       0.019042         0.5182    2-B1u
   9   0.0000       0.039823         1.0836    4-Ag
  10   0.0000       0.088120         2.3979    3-B3u

                 SPIN DOWN ORBITALS
  NO   OCC          E(Eh)            E(eV)    Irrep
   0   1.0000     -40.477152     -1101.4393    1-Ag
   1   1.0000      -2.793473       -76.0143    2-Ag
   2   1.0000      -1.517135       -41.2833    1-B3u
   3   1.0000      -1.517135       -41.2833    1-B2u
   4   1.0000      -1.517135       -41.2833    1-B1u
   5   0.0000       0.009430         0.2566    3-Ag
   6   0.0000       0.032096         0.8734    2-B3u
   7   0.0000       0.032096         0.8734    2-B1u
   8   0.0000       0.032096         0.8734    2-B2u
   9   0.0000       0.064422         1.7530    4-Ag

MULLIKEN ATOMIC CHARGES AND SPIN POPULATIONS
--------------------------------------------
   0 Na:    0.000000    1.000000
Sum of atomic charges         :    0.0000000

LOEWDIN ATOMIC CHARGES AND SPIN POPULATIONS
-------------------------------------------
   0 Na:    0.000000    1.000000

FINAL SINGLE POINT ENERGY      -161.858793463534

DIPOLE MOMENT
-------------
                                X             Y             Z
Electronic contribution:      0.00000       0.00000      -0.00000
Nuclear contribution   :      0.00000       0.00000       0.00000
                        -----------------------------------------
Total Dipole Moment    :      0.00000       0.00000      -0.00000
                        -----------------------------------------
Magnitude (a.u.)       :      0.00000
Magnitude (Debye)      :      0.00000

                             ****ORCA TERMINATED NORMALLY****
TOTAL RUN TIME: 0 days 0 hours 0 minutes 3 seconds 636 msec
