                         Program Version 4.0.1.2 - RELEASE -
|  1> # ================================================================
|  2> # Orca input file
|  3> # ================================================================
|  4> ! HF def2-QZVP VeryTightSCF UseSym
|  5>
|  6> ! PAL4
|  7>
|  8> %scf
|  9>   STABPerform true
| 10> #  STABRestartUHFifUnstable true
| 11> end
| 12>
| 13>
| 14>
| 15> * xyzfile 0 1 ../../../../chem_database/Ar.xyz
| 16>
| 17>                          ****END OF INPUT****

CARTESIAN COORDINATES (ANGSTROEM)
---------------------------------
  Ar     0.000000    0.000000    0.000000

 Total Charge           Charge          ....    0
 Multiplicity           Mult            ....    1
 Number of Electrons    NEL             ....   18
 Basis Dimension        Dim             ....   70

ORBITAL ENERGIES
----------------

  NO   OCC          E(Eh)            E(eV)    Irrep
   0   2.0000    -118.610345     -3227.5516    1-Ag
   1   2.0000     -12.322109      -335.3016    2-Ag
   2   2.0000      -9.571418      -260.4515    1-B2u
   3   2.0000      -9.571418      -260.4515    1-B3u
   4   2.0000      -9.571418      -260.4515    1-B1u
   5   2.0000      -1.277296       -34.7570    3-Ag
   6   2.0000      -0.590961       -16.0809    2-B3u
   7   2.0000      -0.590961       -16.0809    2-B2u
   8   2.0000      -0.590961       -16.0809    2-B1u
   9   0.0000       0.316833         8.6215    3-B3u
  10   0.0000       0.316833         8.6215    3-B2u
  11   0.0000       0.316833         8.6215    3-B1u
  12   0.0000       0.440682        11.9916    4-Ag
  13   0.0000       0.555067        15.1042    1-B3g

MULLIKEN ATOMIC CHARGES
-----------------------
   0 Ar:   -0.000000
Sum of atomic charges:   -0.0000000

LOEWDIN ATOMIC CHARGES
----------------------
   0 Ar:   -0.000000

FINAL SINGLE POINT ENERGY      -526.817194903047

DIPOLE MOMENT
-------------
                                X             Y             Z
Electronic contribution:      0.00000      -0.00000       0.00000
Nuclear contribution   :      0.00000       0.00000       0.00000
                        -----------------------------------------
Total Dipole Moment    :      0.00000      -0.00000       0.00000
                        -----------------------------------------
Magnitude (a.u.)       :      0.00000
Magnitude (Debye)      :      0.00000

                             ****ORCA TERMINATED NORMALLY****
TOTAL RUN TIME: 0 days 0 hours 0 minutes 4 seconds 305 msec
