                         Program Version 4.0.1.2 - RELEASE -
|  1> # ================================================================
|  2> # Orca input file
|  3> # ================================================================
|  4> ! HF cc-pVQZ VeryTightSCF UseSym
|  5>
|  6> ! PAL4
|  7>
|  8> %scf
|  9>   STABPerform true
| 10> #  STABRestartUHFifUnstable true
| 11> end
| 12>
| 13>
| 14>
| 15> * xyzfile 0 2 ../../../../chem_database/Li.xyz
| 16>
| 17>                          ****END OF INPUT****

CARTESIAN COORDINATES (ANGSTROEM)
---------------------------------
  Li     0.000000    0.000000    0.000000

 Total Charge           Charge          ....    0
 Multiplicity           Mult            ....    2
 Number of Electrons    NEL             ....    3
 Basis Dimension        Dim             ....   55

ORBITAL ENERGIES
----------------
                 SPIN UP ORBITALS
  NO   OCC          E(Eh)            E(eV)    Irrep
   0   1.0000      -2.486597       -67.6637    1-Ag
   1   1.0000      -0.196365        -5.3434    2-Ag
   2   0.0000       0.019436         0.5289    1-B1u
   3   0.0000       0.019436         0.5289    1-B3u
   4   0.0000       0.019436         0.5289    1-B2u
   5   0.0000       0.065601         1.7851    3-Ag
   6   0.0000       0.088837         2.4174    2-B3u

                 SPIN DOWN ORBITALS
  NO   OCC          E(Eh)            E(eV)    Irrep
   0   1.0000      -2.468723       -67.1774    1-Ag
   1   0.0000       0.013967         0.3801    2-Ag
   2   0.0000       0.035696         0.9713    1-B1u
   3   0.0000       0.035696         0.9713    1-B2u
   4   0.0000       0.035696         0.9713    1-B3u
   5   0.0000       0.098424         2.6783    3-Ag

MULLIKEN ATOMIC CHARGES AND SPIN POPULATIONS
--------------------------------------------
   0 Li:    0.000000    1.000000
Sum of atomic charges         :    0.0000000

LOEWDIN ATOMIC CHARGES AND SPIN POPULATIONS
-------------------------------------------
   0 Li:   -0.000000    1.000000

FINAL SINGLE POINT ENERGY        -7.432718440900

DIPOLE MOMENT
-------------
                                X             Y             Z
Electronic contribution:      0.00000       0.00000       0.00000
Nuclear contribution   :      0.00000       0.00000       0.00000
                        -----------------------------------------
Total Dipole Moment    :      0.00000       0.00000       0.00000
                        -----------------------------------------
Magnitude (a.u.)       :      0.00000
Magnitude (Debye)      :      0.00000

                             ****ORCA TERMINATED NORMALLY****
TOTAL RUN TIME: 0 days 0 hours 0 minutes 3 seconds 188 msec
