                         Program Version 4.0.1.2 - RELEASE -
|  1> # ================================================================
|  2> # Orca input file
|  3> # ================================================================
|  4> ! HF def2-QZVP VeryTightSCF UseSym
|  5>
|  6> ! PAL4
|  7>
|  8> #%scf
|  9> #  STABPerform true
| 10> #  STABRestartUHFifUnstable true
| 11> #end
| 12>
| 13>
| 14>
| 15> * xyzfile 0 3 ../../../../chem_database/Ge.xyz
| 16>
| 17>                          ****END OF INPUT****

CARTESIAN COORDINATES (ANGSTROEM)
---------------------------------
  Ge     0.000000    0.000000    0.000000

 Total Charge           Charge          ....    0
 Multiplicity           Mult            ....    3
 Number of Electrons    NEL             ....   32
 Basis Dimension        Dim             ....   75

ORBITAL ENERGIES
----------------
                 SPIN UP ORBITALS
  NO   OCC          E(Eh)            E(eV)    Irrep
   0   1.0000    -405.245549    -11027.2920    1-Ag
   1   1.0000     -52.149868     -1419.0700    2-Ag
   2   1.0000     -46.237338     -1258.1819    1-B1u
   3   1.0000     -46.237338     -1258.1819    1-B3u
   4   1.0000     -46.236491     -1258.1589    1-B2u
   5   1.0000      -7.192915      -195.7292    3-Ag
   6   1.0000      -5.165346      -140.5562    2-B1u
   7   1.0000      -5.165346      -140.5562    2-B3u
   8   1.0000      -5.164741      -140.5397    2-B2u
   9   1.0000      -1.640577       -44.6424    4-Ag
  10   1.0000      -1.638154       -44.5764    1-B3g
  11   1.0000      -1.638154       -44.5764    1-B1g
  12   1.0000      -1.631274       -44.3892    5-Ag
  13   1.0000      -1.631274       -44.3892    1-B2g
  14   1.0000      -0.629700       -17.1350    6-Ag
  15   1.0000      -0.291140        -7.9223    3-B3u
  16   1.0000      -0.291140        -7.9223    3-B1u
  17   0.0000      -0.008375        -0.2279    3-B2u
  18   0.0000       0.172995         4.7074    7-Ag
  19   0.0000       0.218821         5.9544    4-B3u
  20   0.0000       0.218821         5.9544    4-B1u
  21   0.0000       0.239998         6.5307    4-B2u

                 SPIN DOWN ORBITALS
  NO   OCC          E(Eh)            E(eV)    Irrep
   0   1.0000    -405.241751    -11027.1886    1-Ag
   1   1.0000     -52.149206     -1419.0520    2-Ag
   2   1.0000     -46.236336     -1258.1547    1-B2u
   3   1.0000     -46.232349     -1258.0462    1-B1u
   4   1.0000     -46.232349     -1258.0462    1-B3u
   5   1.0000      -7.187059      -195.5698    3-Ag
   6   1.0000      -5.165705      -140.5660    2-B2u
   7   1.0000      -5.151306      -140.1742    2-B1u
   8   1.0000      -5.151306      -140.1742    2-B3u
   9   1.0000      -1.639295       -44.6075    4-Ag
  10   1.0000      -1.635505       -44.5044    1-B1g
  11   1.0000      -1.635505       -44.5044    1-B3g
  12   1.0000      -1.624634       -44.2085    5-Ag
  13   1.0000      -1.624634       -44.2085    1-B2g
  14   1.0000      -0.478994       -13.0341    6-Ag
  15   0.0000       0.013767         0.3746    3-B2u
  16   0.0000       0.053439         1.4541    3-B1u
  17   0.0000       0.053439         1.4541    3-B3u
  18   0.0000       0.197691         5.3794    7-Ag
  19   0.0000       0.250074         6.8048    4-B2u

MULLIKEN ATOMIC CHARGES AND SPIN POPULATIONS
--------------------------------------------
   0 Ge:   -0.000000    2.000000
Sum of atomic charges         :   -0.0000000

LOEWDIN ATOMIC CHARGES AND SPIN POPULATIONS
-------------------------------------------
   0 Ge:   -0.000000    2.000000

FINAL SINGLE POINT ENERGY     -2075.362950962114

DIPOLE MOMENT
-------------
                                X             Y             Z
Electronic contribution:     -0.00000       0.00000      -0.00000
Nuclear contribution   :      0.00000       0.00000       0.00000
                        -----------------------------------------
Total Dipole Moment    :     -0.00000       0.00000      -0.00000
                        -----------------------------------------
Magnitude (a.u.)       :      0.00000
Magnitude (Debye)      :      0.00000

                             ****ORCA TERMINATED NORMALLY****
TOTAL RUN TIME: 0 days 0 hours 0 minutes 7 seconds 298 msec
