                         Program Version 4.0.1.2 - RELEASE -
|  1> # ================================================================
|  2> # Orca input file
|  3> # ================================================================
|  4> ! HF def2-QZVP VeryTightSCF UseSym
|  5>
|  6> ! PAL4
|  7>
|  8> #%scf
|  9> #  STABPerform true
| 10> #  STABRestartUHFifUnstable true
| 11> #end
| 12>
| 13>
| 14>
| 15> * xyzfile 0 5 ../../../../chem_database/Fe.xyz
| 16>
| 17>                          ****END OF INPUT****

CARTESIAN COORDINATES (ANGSTROEM)
---------------------------------
  Fe     0.000000    0.000000    0.000000

 Total Charge           Charge          ....    0
 Multiplicity           Mult            ....    5
 Number of Electrons    NEL             ....   26
 Basis Dimension        Dim             ....   84

ORBITAL ENERGIES
----------------
                 SPIN UP ORBITALS
  NO   OCC          E(Eh)            E(eV)    Irrep
   0   1.0000    -261.181322     -7107.1051    1-Ag
   1   1.0000     -31.761493      -864.2742    2-Ag
   2   1.0000     -27.252713      -741.5840    1-B3u
   3   1.0000     -27.252713      -741.5840    1-B2u
   4   1.0000     -27.222245      -740.7549    1-B1u
   5   1.0000      -4.090827      -111.3171    3-Ag
   6   1.0000      -2.726740       -74.1984    2-B2u
   7   1.0000      -2.726740       -74.1984    2-B3u
   8   1.0000      -2.656002       -72.2735    2-B1u
   9   1.0000      -0.488265       -13.2864    1-B1g
  10   1.0000      -0.488265       -13.2864    4-Ag
  11   1.0000      -0.451260       -12.2794    5-Ag
  12   1.0000      -0.412507       -11.2249    1-B3g
  13   1.0000      -0.412507       -11.2249    1-B2g
  14   1.0000      -0.229442        -6.2434    6-Ag
  15   0.0000       0.031142         0.8474    3-B3u
  16   0.0000       0.031142         0.8474    3-B2u
  17   0.0000       0.035104         0.9552    3-B1u
  18   0.0000       0.100443         2.7332    7-Ag
  19   0.0000       0.147811         4.0221    4-B3u

                 SPIN DOWN ORBITALS
  NO   OCC          E(Eh)            E(eV)    Irrep
   0   1.0000    -261.178464     -7107.0273    1-Ag
   1   1.0000     -31.674819      -861.9156    2-Ag
   2   1.0000     -27.158949      -739.0326    1-B1u
   3   1.0000     -27.158366      -739.0167    1-B3u
   4   1.0000     -27.158366      -739.0167    1-B2u
   5   1.0000      -3.832753      -104.2945    3-Ag
   6   1.0000      -2.431794       -66.1725    2-B1u
   7   1.0000      -2.379244       -64.7425    2-B2u
   8   1.0000      -2.379244       -64.7425    2-B3u
   9   1.0000      -0.305829        -8.3220    1-B2g
  10   1.0000      -0.305829        -8.3220    1-B3g
  11   0.0000       0.018127         0.4933    4-Ag
  12   0.0000       0.053937         1.4677    3-B2u
  13   0.0000       0.053937         1.4677    3-B3u
  14   0.0000       0.054799         1.4912    3-B1u
  15   0.0000       0.145398         3.9565    5-Ag

MULLIKEN ATOMIC CHARGES AND SPIN POPULATIONS
--------------------------------------------
   0 Fe:    0.000000    4.000000
Sum of atomic charges         :    0.0000000

LOEWDIN ATOMIC CHARGES AND SPIN POPULATIONS
-------------------------------------------
   0 Fe:   -0.000000    4.000000

FINAL SINGLE POINT ENERGY     -1262.372943323099

DIPOLE MOMENT
-------------
                                X             Y             Z
Electronic contribution:     -0.00000       0.00000      -0.00000
Nuclear contribution   :      0.00000       0.00000       0.00000
                        -----------------------------------------
Total Dipole Moment    :     -0.00000       0.00000      -0.00000
                        -----------------------------------------
Magnitude (a.u.)       :      0.00000
Magnitude (Debye)      :      0.00000

                             ****ORCA TERMINATED NORMALLY****
TOTAL RUN TIME: 0 days 0 hours 0 minutes 10 seconds 562 msec
