                         Program Version 4.0.1.2 - RELEASE -
|  1> # ================================================================
|  2> # Orca input file
|  3> # ================================================================
|  4> ! HF def2-QZVP VeryTightSCF UseSym
|  5>
|  6> ! PAL4
|  7>
|  8> %scf
|  9>   STABPerform true
| 10> #  STABRestartUHFifUnstable true
| 11> end
| 12>
| 13>
| 14>
| 15> * xyzfile 0 3 ../../../../chem_database/Ti.xyz
| 16>
| 17>                          ****END OF INPUT****

CARTESIAN COORDINATES (ANGSTROEM)
---------------------------------
  Ti     0.000000    0.000000    0.000000

 Total Charge           Charge          ....    0
 Multiplicity           Mult            ....    3
 Number of Electrons    NEL             ....   22
 Basis Dimension        Dim             ....   84

ORBITAL ENERGIES
----------------
                 SPIN UP ORBITALS
  NO   OCC          E(Eh)            E(eV)    Irrep
   0   1.0000    -183.276111     -4987.1965    1-Ag
   1   1.0000     -21.442373      -583.4766    2-Ag
   2   1.0000     -17.811433      -484.6737    1-B2u
   3   1.0000     -17.811433      -484.6737    1-B3u
   4   1.0000     -17.809666      -484.6256    1-B1u
   5   1.0000      -2.938466       -79.9597    3-Ag
   6   1.0000      -1.905751       -51.8581    2-B1u
   7   1.0000      -1.860756       -50.6337    2-B3u
   8   1.0000      -1.860756       -50.6337    2-B2u
   9   1.0000      -0.436747       -11.8845    1-B2g
  10   1.0000      -0.436747       -11.8845    1-B3g
  11   1.0000      -0.232444        -6.3251    4-Ag
  12   0.0000       0.021406         0.5825    3-B2u
  13   0.0000       0.021406         0.5825    3-B3u
  14   0.0000       0.021959         0.5975    3-B1u
  15   0.0000       0.072003         1.9593    5-Ag
  16   0.0000       0.094466         2.5705    6-Ag

                 SPIN DOWN ORBITALS
  NO   OCC          E(Eh)            E(eV)    Irrep
   0   1.0000    -183.276023     -4987.1941    1-Ag
   1   1.0000     -21.409364      -582.5784    2-Ag
   2   1.0000     -17.784876      -483.9511    1-B2u
   3   1.0000     -17.784876      -483.9511    1-B3u
   4   1.0000     -17.762737      -483.3486    1-B1u
   5   1.0000      -2.811999       -76.5184    3-Ag
   6   1.0000      -1.739389       -47.3312    2-B3u
   7   1.0000      -1.739389       -47.3312    2-B2u
   8   1.0000      -1.677571       -45.6490    2-B1u
   9   1.0000      -0.210583        -5.7303    4-Ag
  10   0.0000       0.021736         0.5915    3-B2u
  11   0.0000       0.021736         0.5915    3-B3u
  12   0.0000       0.026001         0.7075    3-B1u
  13   0.0000       0.076283         2.0758    5-Ag
  14   0.0000       0.105542         2.8720    6-Ag

MULLIKEN ATOMIC CHARGES AND SPIN POPULATIONS
--------------------------------------------
   0 Ti:    0.000000    2.000000
Sum of atomic charges         :    0.0000000

LOEWDIN ATOMIC CHARGES AND SPIN POPULATIONS
-------------------------------------------
   0 Ti:    0.000000    2.000000

FINAL SINGLE POINT ENERGY      -848.401595451195

DIPOLE MOMENT
-------------
                                X             Y             Z
Electronic contribution:     -0.00000       0.00000       0.00000
Nuclear contribution   :      0.00000       0.00000       0.00000
                        -----------------------------------------
Total Dipole Moment    :     -0.00000       0.00000       0.00000
                        -----------------------------------------
Magnitude (a.u.)       :      0.00000
Magnitude (Debye)      :      0.00000

                             ****ORCA TERMINATED NORMALLY****
TOTAL RUN TIME: 0 days 0 hours 0 minutes 14 seconds 303 msec
