                         Program Version 4.0.1.2 - RELEASE -
|  1> # ================================================================
|  2> # Orca input file
|  3> # ================================================================
|  4> ! HF def2-QZVP VeryTightSCF UseSym
|  5>
|  6> ! PAL4
|  7>
|  8> #%scf
|  9> #  STABPerform true
| 10> #  STABRestartUHFifUnstable true
| 11> #end
| 12>
| 13>
| 14>
| 15> * xyzfile 0 2 ../../../../chem_database/Br.xyz
| 16>
| 17>                          ****END OF INPUT****

CARTESIAN COORDINATES (ANGSTROEM)
---------------------------------
  Br     0.000000    0.000000    0.000000

 Total Charge           Charge          ....    0
 Multiplicity           Mult            ....    2
 Number of Electrons    NEL             ....   35
 Basis Dimension        Dim             ....   75

ORBITAL ENERGIES
----------------
                 SPIN UP ORBITALS
  NO   OCC          E(Eh)            E(eV)    Irrep
   0   1.0000    -490.062452    -13335.2773    1-Ag
   1   1.0000     -65.200931     -1774.2075    2-Ag
   2   1.0000     -58.561662     -1593.5438    1-B3u
   3   1.0000     -58.554046     -1593.3366    1-B2u
   4   1.0000     -58.554046     -1593.3366    1-B1u
   5   1.0000      -9.875264      -268.7196    3-Ag
   6   1.0000      -7.498695      -204.0499    2-B3u
   7   1.0000      -7.475398      -203.4159    2-B2u
   8   1.0000      -7.475398      -203.4159    2-B1u
   9   1.0000      -3.233181       -87.9793    4-Ag
  10   1.0000      -3.227693       -87.8300    1-B2g
  11   1.0000      -3.227693       -87.8300    1-B1g
  12   1.0000      -3.211451       -87.3880    5-Ag
  13   1.0000      -3.211451       -87.3880    1-B3g
  14   1.0000      -1.047835       -28.5130    6-Ag
  15   1.0000      -0.523846       -14.2546    3-B3u
  16   1.0000      -0.454135       -12.3576    3-B2u
  17   1.0000      -0.454135       -12.3576    3-B1u
  18   0.0000       0.246708         6.7133    4-B3u
  19   0.0000       0.266569         7.2537    4-B1u
  20   0.0000       0.266569         7.2537    4-B2u
  21   0.0000       0.313946         8.5429    7-Ag
  22   0.0000       0.422897        11.5076    8-Ag

                 SPIN DOWN ORBITALS
  NO   OCC          E(Eh)            E(eV)    Irrep
   0   1.0000    -490.058063    -13335.1578    1-Ag
   1   1.0000     -65.198545     -1774.1426    2-Ag
   2   1.0000     -58.552615     -1593.2977    1-B2u
   3   1.0000     -58.552615     -1593.2977    1-B1u
   4   1.0000     -58.549626     -1593.2163    1-B3u
   5   1.0000      -9.867058      -268.4963    3-Ag
   6   1.0000      -7.473303      -203.3589    2-B2u
   7   1.0000      -7.473303      -203.3589    2-B1u
   8   1.0000      -7.469216      -203.2477    2-B3u
   9   1.0000      -3.222418       -87.6865    4-Ag
  10   1.0000      -3.219489       -87.6068    1-B2g
  11   1.0000      -3.219489       -87.6068    1-B1g
  12   1.0000      -3.211044       -87.3769    5-Ag
  13   1.0000      -3.211044       -87.3769    1-B3g
  14   1.0000      -0.940869       -25.6024    6-Ag
  15   1.0000      -0.434073       -11.8117    3-B1u
  16   1.0000      -0.434073       -11.8117    3-B2u
  17   0.0000      -0.047049        -1.2803    3-B3u
  18   0.0000       0.269589         7.3359    4-B1u
  19   0.0000       0.269589         7.3359    4-B2u
  20   0.0000       0.289925         7.8893    4-B3u
  21   0.0000       0.329015         8.9529    7-Ag

MULLIKEN ATOMIC CHARGES AND SPIN POPULATIONS
--------------------------------------------
   0 Br:   -0.000000    1.000000
Sum of atomic charges         :   -0.0000000

LOEWDIN ATOMIC CHARGES AND SPIN POPULATIONS
-------------------------------------------
   0 Br:   -0.000000    1.000000

FINAL SINGLE POINT ENERGY     -2572.447645009454

DIPOLE MOMENT
-------------
                                X             Y             Z
Electronic contribution:      0.00000      -0.00000      -0.00000
Nuclear contribution   :      0.00000       0.00000       0.00000
                        -----------------------------------------
Total Dipole Moment    :      0.00000      -0.00000      -0.00000
                        -----------------------------------------
Magnitude (a.u.)       :      0.00000
Magnitude (Debye)      :      0.00000

                             ****ORCA TERMINATED NORMALLY****
TOTAL RUN TIME: 0 days 0 hours 0 minutes 8 seconds 577 msec
