                         Program Version 4.0.1.2 - RELEASE -
|  1> # ================================================================
|  2> # Orca input file
|  3> # ================================================================
|  4> ! HF cc-pVQZ VeryTightSCF UseSym
|  5>
|  6> ! PAL4
|  7>
|  8> %scf
|  9>   STABPerform true
| 10> #  STABRestartUHFifUnstable true
| 11> end
| 12>
| 13>
| 14>
| 15> * xyzfile 0 2 ../../../../chem_database/F.xyz
| 16>
| 17>                          ****END OF INPUT****

CARTESIAN COORDINATES (ANGSTROEM)
---------------------------------
  F      0.000000    0.000000    0.000000

 Total Charge           Charge          ....    0
 Multiplicity           Mult            ....    2
 Number of Electrons    NEL             ....    9
 Basis Dimension        Dim             ....   55

ORBITAL ENERGIES
----------------
                 SPIN UP ORBITALS
  NO   OCC          E(Eh)            E(eV)    Irrep
   0   1.0000     -26.405576      -718.5323    1-Ag
   1   1.0000      -1.671194       -45.4755    2-Ag
   2   1.0000      -0.843632       -22.9564    1-B2u
   3   1.0000      -0.730105       -19.8672    1-B1u
   4   1.0000      -0.730105       -19.8672    1-B3u
   5   0.0000       0.631245        17.1771    2-B2u
   6   0.0000       0.668088        18.1796    2-B3u
   7   0.0000       0.668088        18.1796    2-B1u
   8   0.0000       0.736305        20.0359    3-Ag
   9   0.0000       1.534042        41.7434    4-Ag

                 SPIN DOWN ORBITALS
  NO   OCC          E(Eh)            E(eV)    Irrep
   0   1.0000     -26.357660      -717.2284    1-Ag
   1   1.0000      -1.476084       -40.1663    2-Ag
   2   1.0000      -0.678864       -18.4728    1-B1u
   3   1.0000      -0.678864       -18.4728    1-B3u
   4   0.0000       0.058991         1.6052    1-B2u
   5   0.0000       0.679221        18.4826    2-B3u
   6   0.0000       0.679221        18.4826    2-B1u
   7   0.0000       0.766280        20.8515    3-Ag
   8   0.0000       0.769658        20.9435    2-B2u

MULLIKEN ATOMIC CHARGES AND SPIN POPULATIONS
--------------------------------------------
   0 F :   -0.000000    1.000000
Sum of atomic charges         :   -0.0000000

LOEWDIN ATOMIC CHARGES AND SPIN POPULATIONS
-------------------------------------------
   0 F :   -0.000000    1.000000

FINAL SINGLE POINT ENERGY       -99.413770140187

DIPOLE MOMENT
-------------
                                X             Y             Z
Electronic contribution:      0.00000       0.00000      -0.00000
Nuclear contribution   :      0.00000       0.00000       0.00000
                        -----------------------------------------
Total Dipole Moment    :      0.00000       0.00000      -0.00000
                        -----------------------------------------
Magnitude (a.u.)       :      0.00000
Magnitude (Debye)      :      0.00000

                             ****ORCA TERMINATED NORMALLY****
TOTAL RUN TIME: 0 days 0 hours 0 minutes 4 seconds 116 msec
