                         Program Version 4.0.1.2 - RELEASE -
|  1> # ================================================================
|  2> # Orca input file
|  3> # ================================================================
|  4> ! HF def2-QZVP VeryTightSCF UseSym
|  5>
|  6> ! PAL4
|  7>
|  8> #%scf
|  9> #  STABPerform true
| 10> #  STABRestartUHFifUnstable true
| 11> #end
| 12>
| 13>
| 14>
| 15> * xyzfile 0 4 ../../../../chem_database/As.xyz
| 16>
| 17>                          ****END OF INPUT****

CARTESIAN COORDINATES (ANGSTROEM)
---------------------------------
  As     0.000000    0.000000    0.000000

 Total Charge           Charge          ....    0
 Multiplicity           Mult            ....    4
 Number of Electrons    NEL             ....   33
 Basis Dimension        Dim             ....   75

ORBITAL ENERGIES
----------------
                 SPIN UP ORBITALS
  NO   OCC          E(Eh)            E(eV)    Irrep
   0   1.0000    -432.591209    -11771.4053    1-Ag
   1   1.0000     -56.312183     -1532.3324    2-Ag
   2   1.0000     -50.158820     -1364.8909    1-B2u
   3   1.0000     -50.158820     -1364.8909    1-B3u
   4   1.0000     -50.158820     -1364.8909    1-B1u
   5   1.0000      -8.036531      -218.6851    3-Ag
   6   1.0000      -5.890677      -160.2935    2-B2u
   7   1.0000      -5.890677      -160.2935    2-B3u
   8   1.0000      -5.890677      -160.2935    2-B1u
   9   1.0000      -2.117331       -57.6155    1-B3g
  10   1.0000      -2.117331       -57.6155    1-B2g
  11   1.0000      -2.117331       -57.6155    1-B1g
  12   1.0000      -2.117331       -57.6155    4-Ag
  13   1.0000      -2.117331       -57.6155    5-Ag
  14   1.0000      -0.815532       -22.1918    6-Ag
  15   1.0000      -0.370130       -10.0718    3-B1u
  16   1.0000      -0.370130       -10.0718    3-B2u
  17   1.0000      -0.370130       -10.0718    3-B3u
  18   0.0000       0.211577         5.7573    7-Ag
  19   0.0000       0.215210         5.8562    4-B1u
  20   0.0000       0.215210         5.8562    4-B2u
  21   0.0000       0.215210         5.8562    4-B3u
  22   0.0000       0.339208         9.2303    8-Ag

                 SPIN DOWN ORBITALS
  NO   OCC          E(Eh)            E(eV)    Irrep
   0   1.0000    -432.583252    -11771.1887    1-Ag
   1   1.0000     -56.309218     -1532.2517    2-Ag
   2   1.0000     -50.150644     -1364.6684    1-B2u
   3   1.0000     -50.150644     -1364.6684    1-B3u
   4   1.0000     -50.150644     -1364.6684    1-B1u
   5   1.0000      -8.022327      -218.2986    3-Ag
   6   1.0000      -5.870346      -159.7402    2-B2u
   7   1.0000      -5.870346      -159.7402    2-B3u
   8   1.0000      -5.870346      -159.7402    2-B1u
   9   1.0000      -2.107604       -57.3508    1-B3g
  10   1.0000      -2.107604       -57.3508    1-B2g
  11   1.0000      -2.107604       -57.3508    1-B1g
  12   1.0000      -2.107604       -57.3508    4-Ag
  13   1.0000      -2.107604       -57.3508    5-Ag
  14   1.0000      -0.555997       -15.1294    6-Ag
  15   0.0000       0.038116         1.0372    3-B2u
  16   0.0000       0.038116         1.0372    3-B3u
  17   0.0000       0.038116         1.0372    3-B1u
  18   0.0000       0.251680         6.8486    7-Ag
  19   0.0000       0.274799         7.4777    4-B1u

MULLIKEN ATOMIC CHARGES AND SPIN POPULATIONS
--------------------------------------------
   0 As:   -0.000000    3.000000
Sum of atomic charges         :   -0.0000000

LOEWDIN ATOMIC CHARGES AND SPIN POPULATIONS
-------------------------------------------
   0 As:    0.000000    3.000000

FINAL SINGLE POINT ENERGY     -2234.239136706425

DIPOLE MOMENT
-------------
                                X             Y             Z
Electronic contribution:     -0.00000      -0.00000      -0.00000
Nuclear contribution   :      0.00000       0.00000       0.00000
                        -----------------------------------------
Total Dipole Moment    :     -0.00000      -0.00000      -0.00000
                        -----------------------------------------
Magnitude (a.u.)       :      0.00000
Magnitude (Debye)      :      0.00000

                             ****ORCA TERMINATED NORMALLY****
TOTAL RUN TIME: 0 days 0 hours 0 minutes 7 seconds 272 msec
