                         Program Version 4.0.1.2 - RELEASE -
|  1> # ================================================================
|  2> # Orca input file
|  3> # ================================================================
|  4> ! HF def2-QZVP VeryTightSCF UseSym
|  5>
|  6> ! PAL4
|  7>
|  8> %scf
|  9>   STABPerform true
| 10> #  STABRestartUHFifUnstable true
| 11> end
| 12>
| 13>
| 14>
| 15> * xyzfile 0 1 ../../../../chem_database/Mg.xyz
| 16>
| 17>                          ****END OF INPUT****

CARTESIAN COORDINATES (ANGSTROEM)
---------------------------------
  Mg     0.000000    0.000000    0.000000

 Total Charge           Charge          ....    0
 Multiplicity           Mult            ....    1
 Number of Electrons    NEL             ....   12
 Basis Dimension        Dim             ....   51

ORBITAL ENERGIES
----------------

  NO   OCC          E(Eh)            E(eV)    Irrep
   0   2.0000     -49.031546     -1334.2162    1-Ag
   1   2.0000      -3.767654      -102.5231    2-Ag
   2   2.0000      -2.282161       -62.1007    1-B1u
   3   2.0000      -2.282161       -62.1007    1-B2u
   4   2.0000      -2.282161       -62.1007    1-B3u
   5   2.0000      -0.253050        -6.8858    3-Ag
   6   0.0000       0.033707         0.9172    2-B1u
   7   0.0000       0.033707         0.9172    2-B3u
   8   0.0000       0.033707         0.9172    2-B2u
   9   0.0000       0.086832         2.3628    4-Ag
  10   0.0000       0.154202         4.1961    3-B2u

MULLIKEN ATOMIC CHARGES
-----------------------
   0 Mg:    0.000000
Sum of atomic charges:    0.0000000

LOEWDIN ATOMIC CHARGES
----------------------
   0 Mg:    0.000000

FINAL SINGLE POINT ENERGY      -199.614487886260

DIPOLE MOMENT
-------------
                                X             Y             Z
Electronic contribution:      0.00000       0.00000       0.00000
Nuclear contribution   :      0.00000       0.00000       0.00000
                        -----------------------------------------
Total Dipole Moment    :      0.00000       0.00000       0.00000
                        -----------------------------------------
Magnitude (a.u.)       :      0.00000
Magnitude (Debye)      :      0.00000

                             ****ORCA TERMINATED NORMALLY****
TOTAL RUN TIME: 0 days 0 hours 0 minutes 3 seconds 34 msec
