                         Program Version 4.0.1.2 - RELEASE -
|  1> # ================================================================
|  2> # Orca input file
|  3> # ================================================================
|  4> ! RI-MP2 def2-QZVP def2-QZVPP/C VeryTightSCF
|  5> ! PAL4
|  6>
|  7> %mp2
|  8>   density unrelaxed
|  9>   natorbs true
| 10> end
| 11>
| 12> * xyzfile 0 2 ../../../../chem_database/B.xyz
| 13>
| 14>
| 15> $new_job
| 16> ! def2-QZVP VeryTightSCF
| 17> ! MOREAD
| 18>
| 19> %moinp "mol.mp2nat"
| 20>
| 21> %casscf
| 22>   nel  3
| 23>   norb 4
| 24>   PrintWF det
| 25> end
| 26>
| 27> * xyzfile 0 2 ../../../../chem_database/B.xyz
| 28>
| 29>
| 30> $new_job
| 31> ! def2-QZVP VeryTightSCF
| 32>
| 33> %casscf
| 34>   nel  3
| 35>   norb 4
| 36>   PrintWF csf
| 37> end
| 38>
| 39> * xyzfile 0 2 ../../../../chem_database/B.xyz
| 40>
| 41>                          ****END OF INPUT****
 Total Charge           Charge          ....    0
 Multiplicity           Mult            ....    2
 Number of Electrons    NEL             ....    5
MP2 TOTAL ENERGY:      -24.579789133 Eh
FINAL SINGLE POINT ENERGY       -24.579789132762
FINAL SINGLE POINT ENERGY       -24.563728281321

CARTESIAN COORDINATES (ANGSTROEM)
---------------------------------
  B      0.000000    0.000000    0.000000

 Multiplicity           Mult            ....    2
 Number of Electrons    NEL             ....    5
 Basis Dimension        Dim             ....   57

ORBITAL ENERGIES
----------------

  NO   OCC          E(Eh)            E(eV)
   0   2.0000      -7.682700      -209.0569
   1   1.8899      -0.473404       -12.8820
   2   1.0000      -0.079954        -2.1757
   3   0.0550       0.124690         3.3930
   4   0.0550       0.124690         3.3930
   5   0.0000       0.135207         3.6792
   6   0.0000       0.135207         3.6792
   7   0.0000       0.159646         4.3442
   8   0.0000       0.210067         5.7162
   9   0.0000       0.410201        11.1621

MULLIKEN ATOMIC CHARGES AND SPIN DENSITIES
------------------------------------------
   0 B :    0.000000    1.000000
Sum of atomic charges       :    0.0000000

LOEWDIN ATOMIC CHARGES AND SPIN DENSITIES
-----------------------------------------
   0 B :   -0.000000    1.000000

FINAL SINGLE POINT ENERGY       -24.563728281388

DIPOLE MOMENT
-------------
                                X             Y             Z
Electronic contribution:      0.00000       0.00000       0.00000
Nuclear contribution   :      0.00000       0.00000       0.00000
                        -----------------------------------------
Total Dipole Moment    :      0.00000       0.00000       0.00000
                        -----------------------------------------
Magnitude (a.u.)       :      0.00000
Magnitude (Debye)      :      0.00000

                             ****ORCA TERMINATED NORMALLY****
TOTAL RUN TIME: 0 days 0 hours 0 minutes 8 seconds 525 msec
