                         Program Version 4.0.1.2 - RELEASE -
|  1> # ================================================================
|  2> # Orca input file
|  3> # ================================================================
|  4> ! HF def2-QZVP VeryTightSCF UseSym
|  5>
|  6> ! PAL4
|  7>
|  8> %scf
|  9>   STABPerform true
| 10> #  STABRestartUHFifUnstable true
| 11> end
| 12>
| 13>
| 14>
| 15> * xyzfile 0 1 ../../../../chem_database/Kr.xyz
| 16>
| 17>                          ****END OF INPUT****

CARTESIAN COORDINATES (ANGSTROEM)
---------------------------------
  Kr     0.000000    0.000000    0.000000

 Total Charge           Charge          ....    0
 Multiplicity           Mult            ....    1
 Number of Electrons    NEL             ....   36
 Basis Dimension        Dim             ....   75

ORBITAL ENERGIES
----------------

  NO   OCC          E(Eh)            E(eV)    Irrep
   0   2.0000    -520.166124    -14154.4398    1-Ag
   1   2.0000     -69.903584     -1902.1732    2-Ag
   2   2.0000     -63.010367     -1714.5993    1-B2u
   3   2.0000     -63.010367     -1714.5993    1-B1u
   4   2.0000     -63.010367     -1714.5993    1-B3u
   5   2.0000     -10.849386      -295.2268    3-Ag
   6   2.0000      -8.331449      -226.7103    2-B2u
   7   2.0000      -8.331449      -226.7103    2-B1u
   8   2.0000      -8.331449      -226.7103    2-B3u
   9   2.0000      -3.825171      -104.0882    4-Ag
  10   2.0000      -3.825171      -104.0882    5-Ag
  11   2.0000      -3.825171      -104.0882    1-B1g
  12   2.0000      -3.825171      -104.0882    1-B2g
  13   2.0000      -3.825171      -104.0882    1-B3g
  14   2.0000      -1.152862       -31.3710    6-Ag
  15   2.0000      -0.524117       -14.2620    3-B1u
  16   2.0000      -0.524117       -14.2620    3-B3u
  17   2.0000      -0.524117       -14.2620    3-B2u
  18   0.0000       0.298341         8.1183    4-B1u
  19   0.0000       0.298341         8.1183    4-B2u
  20   0.0000       0.298341         8.1183    4-B3u
  21   0.0000       0.372332        10.1317    7-Ag
  22   0.0000       0.510864        13.9013    8-Ag

MULLIKEN ATOMIC CHARGES
-----------------------
   0 Kr:    0.000000
Sum of atomic charges:    0.0000000

LOEWDIN ATOMIC CHARGES
----------------------
   0 Kr:    0.000000

FINAL SINGLE POINT ENERGY     -2752.054295773432

DIPOLE MOMENT
-------------
                                X             Y             Z
Electronic contribution:      0.00000      -0.00000       0.00000
Nuclear contribution   :      0.00000       0.00000       0.00000
                        -----------------------------------------
Total Dipole Moment    :      0.00000      -0.00000       0.00000
                        -----------------------------------------
Magnitude (a.u.)       :      0.00000
Magnitude (Debye)      :      0.00000

                             ****ORCA TERMINATED NORMALLY****
TOTAL RUN TIME: 0 days 0 hours 0 minutes 6 seconds 657 msec
