                         Program Version 4.0.1.2 - RELEASE -
|  1> # ================================================================
|  2> # Orca input file
|  3> # ================================================================
|  4> ! HF def2-QZVP VeryTightSCF UseSym
|  5>
|  6> ! PAL4
|  7>
|  8> %scf
|  9>   STABPerform true
| 10> #  STABRestartUHFifUnstable true
| 11> end
| 12>
| 13>
| 14>
| 15> * xyzfile 0 2 ../../../../chem_database/Sc.xyz
| 16>
| 17>                          ****END OF INPUT****

CARTESIAN COORDINATES (ANGSTROEM)
---------------------------------
  Sc     0.000000    0.000000    0.000000

 Total Charge           Charge          ....    0
 Multiplicity           Mult            ....    2
 Number of Electrons    NEL             ....   21
 Basis Dimension        Dim             ....   84

ORBITAL ENERGIES
----------------
                 SPIN UP ORBITALS
  NO   OCC          E(Eh)            E(eV)    Irrep
   0   1.0000    -165.899258     -4514.3483    1-Ag
   1   1.0000     -19.085743      -519.3495    2-Ag
   2   1.0000     -15.674934      -426.5366    1-B1u
   3   1.0000     -15.672793      -426.4784    1-B2u
   4   1.0000     -15.672793      -426.4784    1-B3u
   5   1.0000      -2.593309       -70.5675    3-Ag
   6   1.0000      -1.621087       -44.1120    2-B2u
   7   1.0000      -1.621087       -44.1120    2-B3u
   8   1.0000      -1.581947       -43.0470    2-B1u
   9   1.0000      -0.352787        -9.5998    1-B1g
  10   1.0000      -0.216081        -5.8799    4-Ag
  11   0.0000       0.020180         0.5491    3-B3u
  12   0.0000       0.020180         0.5491    3-B2u
  13   0.0000       0.020711         0.5636    3-B1u
  14   0.0000       0.077107         2.0982    5-Ag
  15   0.0000       0.084890         2.3100    6-Ag

                 SPIN DOWN ORBITALS
  NO   OCC          E(Eh)            E(eV)    Irrep
   0   1.0000    -165.899393     -4514.3520    1-Ag
   1   1.0000     -19.073052      -519.0041    2-Ag
   2   1.0000     -15.672560      -426.4720    1-B1u
   3   1.0000     -15.654682      -425.9855    1-B2u
   4   1.0000     -15.654682      -425.9855    1-B3u
   5   1.0000      -2.538826       -69.0850    3-Ag
   6   1.0000      -1.575257       -42.8649    2-B1u
   7   1.0000      -1.521163       -41.3930    2-B3u
   8   1.0000      -1.521163       -41.3930    2-B2u
   9   1.0000      -0.204531        -5.5656    4-Ag
  10   0.0000       0.017396         0.4734    3-B1u
  11   0.0000       0.023537         0.6405    3-B2u
  12   0.0000       0.023537         0.6405    3-B3u
  13   0.0000       0.078759         2.1431    5-Ag
  14   0.0000       0.088363         2.4045    1-B3g

MULLIKEN ATOMIC CHARGES AND SPIN POPULATIONS
--------------------------------------------
   0 Sc:   -0.000000    1.000000
Sum of atomic charges         :   -0.0000000

LOEWDIN ATOMIC CHARGES AND SPIN POPULATIONS
-------------------------------------------
   0 Sc:   -0.000000    1.000000

FINAL SINGLE POINT ENERGY      -759.740051180838

DIPOLE MOMENT
-------------
                                X             Y             Z
Electronic contribution:     -0.00000      -0.00000       0.00000
Nuclear contribution   :      0.00000       0.00000       0.00000
                        -----------------------------------------
Total Dipole Moment    :     -0.00000      -0.00000       0.00000
                        -----------------------------------------
Magnitude (a.u.)       :      0.00000
Magnitude (Debye)      :      0.00000

                             ****ORCA TERMINATED NORMALLY****
TOTAL RUN TIME: 0 days 0 hours 0 minutes 16 seconds 149 msec
