                         Program Version 4.0.1.2 - RELEASE -
|  1> # ================================================================
|  2> # Orca input file
|  3> # ================================================================
|  4> ! HF def2-QZVP VeryTightSCF UseSym
|  5>
|  6> ! PAL4
|  7>
|  8> %scf
|  9>   STABPerform true
| 10> #  STABRestartUHFifUnstable true
| 11> end
| 12>
| 13>
| 14>
| 15> * xyzfile 0 2 ../../../../chem_database/B.xyz
| 16>
| 17>                          ****END OF INPUT****

CARTESIAN COORDINATES (ANGSTROEM)
---------------------------------
  B      0.000000    0.000000    0.000000

 Total Charge           Charge          ....    0
 Multiplicity           Mult            ....    2
 Number of Electrons    NEL             ....    5
 Basis Dimension        Dim             ....   57

ORBITAL ENERGIES
----------------
                 SPIN UP ORBITALS
  NO   OCC          E(Eh)            E(eV)    Irrep
   0   1.0000      -7.701126      -209.5583    1-Ag
   1   1.0000      -0.545157       -14.8345    2-Ag
   2   1.0000      -0.318755        -8.6738    1-B2u
   3   0.0000       0.036248         0.9864    1-B3u
   4   0.0000       0.036248         0.9864    1-B1u
   5   0.0000       0.145583         3.9615    2-B2u
   6   0.0000       0.184807         5.0289    2-B1u
   7   0.0000       0.184807         5.0289    2-B3u

                 SPIN DOWN ORBITALS
  NO   OCC          E(Eh)            E(eV)    Irrep
   0   1.0000      -7.686110      -209.1497    1-Ag
   1   1.0000      -0.446137       -12.1400    2-Ag
   2   0.0000       0.044273         1.2047    1-B3u
   3   0.0000       0.044273         1.2047    1-B1u
   4   0.0000       0.075444         2.0529    1-B2u
   5   0.0000       0.192574         5.2402    2-B3u
   6   0.0000       0.192574         5.2402    2-B1u

MULLIKEN ATOMIC CHARGES AND SPIN POPULATIONS
--------------------------------------------
   0 B :    0.000000    1.000000
Sum of atomic charges         :    0.0000000

LOEWDIN ATOMIC CHARGES AND SPIN POPULATIONS
-------------------------------------------
   0 B :    0.000000    1.000000

FINAL SINGLE POINT ENERGY       -24.533088924907

DIPOLE MOMENT
-------------
                                X             Y             Z
Electronic contribution:     -0.00000      -0.00000       0.00000
Nuclear contribution   :      0.00000       0.00000       0.00000
                        -----------------------------------------
Total Dipole Moment    :     -0.00000      -0.00000       0.00000
                        -----------------------------------------
Magnitude (a.u.)       :      0.00000
Magnitude (Debye)      :      0.00000

                             ****ORCA TERMINATED NORMALLY****
TOTAL RUN TIME: 0 days 0 hours 0 minutes 4 seconds 347 msec
