                         Program Version 4.0.1.2 - RELEASE -
|  1> # ================================================================
|  2> # Orca input file
|  3> # ================================================================
|  4> ! UKS B3LYP def2-QZVP VeryTightSCF
|  5>
|  6> ! PAL4
|  7>
|  8> %scf
|  9>   STABPerform true
| 10> end
| 11>
| 12> * xyzfile 0 1 ../../../../chem_database/ozone.xyz
| 13>
| 14> $new_job
| 15> ! UKS B3LYP def2-QZVP VeryTightSCF
| 16>
| 17> %scf
| 18>   STABPerform true
| 19> end
| 20>
| 21>
| 22> * xyzfile 0 1 ../../../../chem_database/ozone.xyz
| 23>
| 24>                          ****END OF INPUT****
 Total Charge           Charge          ....    0
 Multiplicity           Mult            ....    1
 Number of Electrons    NEL             ....   24
FINAL SINGLE POINT ENERGY      -225.436582089524

CARTESIAN COORDINATES (ANGSTROEM)
---------------------------------
  O      0.000000    0.000000    0.000000
  O      0.000000    0.000000    1.268814
  O      1.129330    0.000000   -0.578362

 Multiplicity           Mult            ....    1
 Number of Electrons    NEL             ....   24
 Basis Dimension        Dim             ....  171

ORBITAL ENERGIES
----------------
                 SPIN UP ORBITALS
  NO   OCC          E(Eh)            E(eV)
   0   1.0000     -19.411929      -528.2254
   1   1.0000     -19.260457      -524.1037
   2   1.0000     -19.246401      -523.7212
   3   1.0000      -1.360563       -37.0228
   4   1.0000      -1.097366       -29.8609
   5   1.0000      -0.786245       -21.3948
   6   1.0000      -0.600278       -16.3344
   7   1.0000      -0.598149       -16.2765
   8   1.0000      -0.589038       -16.0285
   9   1.0000      -0.382888       -10.4189
  10   1.0000      -0.359350        -9.7784
  11   1.0000      -0.345118        -9.3911
  12   0.0000      -0.180578        -4.9138
  13   0.0000       0.057825         1.5735
  14   0.0000       0.119825         3.2606
  15   0.0000       0.197521         5.3748
  16   0.0000       0.205013         5.5787

                 SPIN DOWN ORBITALS
  NO   OCC          E(Eh)            E(eV)
   0   1.0000     -19.411930      -528.2255
   1   1.0000     -19.260484      -524.1044
   2   1.0000     -19.246372      -523.7204
   3   1.0000      -1.360563       -37.0228
   4   1.0000      -1.097367       -29.8609
   5   1.0000      -0.786246       -21.3948
   6   1.0000      -0.600280       -16.3344
   7   1.0000      -0.598153       -16.2766
   8   1.0000      -0.589034       -16.0284
   9   1.0000      -0.382881       -10.4187
  10   1.0000      -0.359340        -9.7781
  11   1.0000      -0.345130        -9.3915
  12   0.0000      -0.180584        -4.9139
  13   0.0000       0.057824         1.5735
  14   0.0000       0.119828         3.2607
  15   0.0000       0.197499         5.3742
  16   0.0000       0.204932         5.5765

MULLIKEN ATOMIC CHARGES AND SPIN POPULATIONS
--------------------------------------------
   0 O :    0.221469    0.000034
   1 O :   -0.111421   -0.502707
   2 O :   -0.110049    0.502673
Sum of atomic charges         :   -0.0000000

LOEWDIN ATOMIC CHARGES AND SPIN POPULATIONS
-------------------------------------------
   0 O :    0.030167   -0.000011
   1 O :   -0.015096   -0.464228
   2 O :   -0.015071    0.464239

  Mayer bond orders larger than 0.1
B(  0-O ,  1-O ) :   1.3479 B(  0-O ,  2-O ) :   1.3478 B(  1-O ,  2-O ) :   0.3292

FINAL SINGLE POINT ENERGY      -225.436582115711

DIPOLE MOMENT
-------------
                                X             Y             Z
Electronic contribution:     -0.18335       0.00000      -0.11269
Nuclear contribution   :      0.00000       0.00000       0.00000
                        -----------------------------------------
Total Dipole Moment    :     -0.18335       0.00000      -0.11269
                        -----------------------------------------
Magnitude (a.u.)       :      0.21522
Magnitude (Debye)      :      0.54703

                             ****ORCA TERMINATED NORMALLY****
TOTAL RUN TIME: 0 days 0 hours 1 minutes 52 seconds 482 msec
