                         Program Version 4.0.1.2 - RELEASE -
|  1> # ================================================================
|  2> # Orca input file
|  3> # ================================================================
|  4> ! HF def2-QZVP VeryTightSCF UseSym
|  5>
|  6> ! PAL4
|  7>
|  8> #%scf
|  9> #  STABPerform true
| 10> #  STABRestartUHFifUnstable true
| 11> #end
| 12>
| 13>
| 14>
| 15> * xyzfile 0 2 ../../../../chem_database/Ga.xyz
| 16>
| 17>                          ****END OF INPUT****

CARTESIAN COORDINATES (ANGSTROEM)
---------------------------------
  Ga     0.000000    0.000000    0.000000

 Total Charge           Charge          ....    0
 Multiplicity           Mult            ....    2
 Number of Electrons    NEL             ....   31
 Basis Dimension        Dim             ....   75

ORBITAL ENERGIES
----------------
                 SPIN UP ORBITALS
  NO   OCC          E(Eh)            E(eV)    Irrep
   0   1.0000    -378.817790    -10308.1561    1-Ag
   1   1.0000     -48.167067     -1310.6925    2-Ag
   2   1.0000     -42.493265     -1156.3005    1-B1u
   3   1.0000     -42.493143     -1156.2972    1-B2u
   4   1.0000     -42.493143     -1156.2972    1-B3u
   5   1.0000      -6.393760      -173.9831    3-Ag
   6   1.0000      -4.482197      -121.9668    2-B3u
   7   1.0000      -4.482197      -121.9668    2-B2u
   8   1.0000      -4.481950      -121.9601    2-B1u
   9   1.0000      -1.196095       -32.5474    4-Ag
  10   1.0000      -1.196095       -32.5474    1-B1g
  11   1.0000      -1.190383       -32.3920    1-B3g
  12   1.0000      -1.190383       -32.3920    1-B2g
  13   1.0000      -1.188630       -32.3443    5-Ag
  14   1.0000      -0.456069       -12.4103    6-Ag
  15   1.0000      -0.215594        -5.8666    3-B1u
  16   0.0000       0.020146         0.5482    3-B3u
  17   0.0000       0.020146         0.5482    3-B2u
  18   0.0000       0.138777         3.7763    7-Ag
  19   0.0000       0.170020         4.6265    4-B1u
  20   0.0000       0.194030         5.2798    4-B2u

                 SPIN DOWN ORBITALS
  NO   OCC          E(Eh)            E(eV)    Irrep
   0   1.0000    -378.816667    -10308.1256    1-Ag
   1   1.0000     -48.167381     -1310.7011    2-Ag
   2   1.0000     -42.493418     -1156.3047    1-B3u
   3   1.0000     -42.493418     -1156.3047    1-B2u
   4   1.0000     -42.490687     -1156.2304    1-B1u
   5   1.0000      -6.392793      -173.9567    3-Ag
   6   1.0000      -4.483466      -122.0013    2-B3u
   7   1.0000      -4.483466      -122.0013    2-B2u
   8   1.0000      -4.473009      -121.7168    2-B1u
   9   1.0000      -1.197123       -32.5754    4-Ag
  10   1.0000      -1.197123       -32.5754    1-B1g
  11   1.0000      -1.188986       -32.3539    1-B3g
  12   1.0000      -1.188986       -32.3539    1-B2g
  13   1.0000      -1.186459       -32.2852    5-Ag
  14   1.0000      -0.394126       -10.7247    6-Ag
  15   0.0000       0.028720         0.7815    3-B3u
  16   0.0000       0.028720         0.7815    3-B2u
  17   0.0000       0.059748         1.6258    3-B1u
  18   0.0000       0.150375         4.0919    7-Ag
  19   0.0000       0.198385         5.3983    4-B3u

MULLIKEN ATOMIC CHARGES AND SPIN POPULATIONS
--------------------------------------------
   0 Ga:   -0.000000    1.000000
Sum of atomic charges         :   -0.0000000

LOEWDIN ATOMIC CHARGES AND SPIN POPULATIONS
-------------------------------------------
   0 Ga:    0.000000    1.000000

FINAL SINGLE POINT ENERGY     -1923.263575528116

DIPOLE MOMENT
-------------
                                X             Y             Z
Electronic contribution:     -0.00000       0.00000      -0.00000
Nuclear contribution   :      0.00000       0.00000       0.00000
                        -----------------------------------------
Total Dipole Moment    :     -0.00000       0.00000      -0.00000
                        -----------------------------------------
Magnitude (a.u.)       :      0.00000
Magnitude (Debye)      :      0.00000

                             ****ORCA TERMINATED NORMALLY****
TOTAL RUN TIME: 0 days 0 hours 0 minutes 7 seconds 753 msec
