                         Program Version 4.0.1.2 - RELEASE -
|  1> # ================================================================
|  2> # Orca input file
|  3> # ================================================================
|  4> ! RI-MP2 def2-QZVP def2-QZVPP/C VeryTightSCF
|  5> ! PAL4
|  6>
|  7> %mp2
|  8>   density unrelaxed
|  9>   natorbs true
| 10> end
| 11>
| 12> * xyzfile 0 3 ../../../../chem_database/C.xyz
| 13>
| 14>
| 15> $new_job
| 16> ! def2-QZVP VeryTightSCF
| 17> ! MOREAD
| 18>
| 19> %moinp "mol.mp2nat"
| 20>
| 21> %casscf
| 22>   nel  4
| 23>   norb 4
| 24>   PrintWF det
| 25> end
| 26>
| 27> * xyzfile 0 3 ../../../../chem_database/C.xyz
| 28>
| 29>
| 30> $new_job
| 31> ! def2-QZVP VeryTightSCF
| 32>
| 33> %casscf
| 34>   nel  4
| 35>   norb 4
| 36>   PrintWF csf
| 37> end
| 38>
| 39> * xyzfile 0 3 ../../../../chem_database/C.xyz
| 40>
| 41>                          ****END OF INPUT****
 Total Charge           Charge          ....    0
 Multiplicity           Mult            ....    3
 Number of Electrons    NEL             ....    6
MP2 TOTAL ENERGY:      -37.765255615 Eh
FINAL SINGLE POINT ENERGY       -37.765255614888
FINAL SINGLE POINT ENERGY       -37.707855050001

CARTESIAN COORDINATES (ANGSTROEM)
---------------------------------
  C      0.000000    0.000000    0.000000

 Multiplicity           Mult            ....    3
 Number of Electrons    NEL             ....    6
 Basis Dimension        Dim             ....   57

ORBITAL ENERGIES
----------------

  NO   OCC          E(Eh)            E(eV)
   0   2.0000     -11.318299      -307.9866
   1   1.9539      -0.696069       -18.9410
   2   1.0000      -0.127046        -3.4571
   3   1.0000      -0.127046        -3.4571
   4   0.0461       0.132176         3.5967
   5   0.0000       0.201724         5.4892
   6   0.0000       0.230251         6.2654
   7   0.0000       0.230251         6.2654
   8   0.0000       0.307936         8.3794
   9   0.0000       0.635024        17.2799

MULLIKEN ATOMIC CHARGES AND SPIN DENSITIES
------------------------------------------
   0 C :   -0.000000    2.000000
Sum of atomic charges       :   -0.0000000

LOEWDIN ATOMIC CHARGES AND SPIN DENSITIES
-----------------------------------------
   0 C :   -0.000000    2.000000

FINAL SINGLE POINT ENERGY       -37.707855050014

DIPOLE MOMENT
-------------
                                X             Y             Z
Electronic contribution:      0.00000       0.00000       0.00000
Nuclear contribution   :      0.00000       0.00000       0.00000
                        -----------------------------------------
Total Dipole Moment    :      0.00000       0.00000       0.00000
                        -----------------------------------------
Magnitude (a.u.)       :      0.00000
Magnitude (Debye)      :      0.00000

                             ****ORCA TERMINATED NORMALLY****
TOTAL RUN TIME: 0 days 0 hours 0 minutes 8 seconds 498 msec
