                         Program Version 4.0.1.2 - RELEASE -
|  1> # ================================================================
|  2> # Orca input file
|  3> # ================================================================
|  4> ! HF def2-QZVP VeryTightSCF UseSym
|  5>
|  6> ! PAL4
|  7>
|  8> #%scf
|  9> #  STABPerform true
| 10> #  STABRestartUHFifUnstable true
| 11> #end
| 12>
| 13>
| 14>
| 15> * xyzfile 0 6 ../../../../chem_database/Mn.xyz
| 16>
| 17>                          ****END OF INPUT****

CARTESIAN COORDINATES (ANGSTROEM)
---------------------------------
  Mn     0.000000    0.000000    0.000000

 Total Charge           Charge          ....    0
 Multiplicity           Mult            ....    6
 Number of Electrons    NEL             ....   25
 Basis Dimension        Dim             ....   84

ORBITAL ENERGIES
----------------
                 SPIN UP ORBITALS
  NO   OCC          E(Eh)            E(eV)    Irrep
   0   1.0000    -240.361926     -6540.5805    1-Ag
   1   1.0000     -28.963388      -788.1339    2-Ag
   2   1.0000     -24.686347      -671.7496    1-B1u
   3   1.0000     -24.660798      -671.0544    1-B3u
   4   1.0000     -24.660798      -671.0544    1-B2u
   5   1.0000      -3.783788      -102.9621    3-Ag
   6   1.0000      -2.534235       -68.9601    2-B1u
   7   1.0000      -2.471340       -67.2486    2-B3u
   8   1.0000      -2.471340       -67.2486    2-B2u
   9   1.0000      -0.447549       -12.1784    4-Ag
  10   1.0000      -0.440052       -11.9744    1-B3g
  11   1.0000      -0.440052       -11.9744    1-B2g
  12   1.0000      -0.415658       -11.3106    5-Ag
  13   1.0000      -0.371832       -10.1181    1-B1g
  14   1.0000      -0.226507        -6.1636    6-Ag
  15   0.0000       0.026862         0.7310    3-B1u
  16   0.0000       0.031665         0.8617    3-B3u
  17   0.0000       0.031665         0.8617    3-B2u
  18   0.0000       0.092590         2.5195    7-Ag
  19   0.0000       0.136180         3.7057    4-B1u

                 SPIN DOWN ORBITALS
  NO   OCC          E(Eh)            E(eV)    Irrep
   0   1.0000    -240.359369     -6540.5109    1-Ag
   1   1.0000     -28.863845      -785.4252    2-Ag
   2   1.0000     -24.572115      -668.6412    1-B1u
   3   1.0000     -24.572011      -668.6384    1-B3u
   4   1.0000     -24.572011      -668.6384    1-B2u
   5   1.0000      -3.467555       -94.3570    3-Ag
   6   1.0000      -2.128560       -57.9210    2-B3u
   7   1.0000      -2.128560       -57.9210    2-B2u
   8   1.0000      -2.082226       -56.6603    2-B1u
   9   1.0000      -0.227263        -6.1841    1-B1g
  10   0.0000       0.019382         0.5274    4-Ag
  11   0.0000       0.051666         1.4059    3-B1u
  12   0.0000       0.052438         1.4269    3-B3u
  13   0.0000       0.052438         1.4269    3-B2u
  14   0.0000       0.140029         3.8104    5-Ag

MULLIKEN ATOMIC CHARGES AND SPIN POPULATIONS
--------------------------------------------
   0 Mn:   -0.000000    5.000000
Sum of atomic charges         :   -0.0000000

LOEWDIN ATOMIC CHARGES AND SPIN POPULATIONS
-------------------------------------------
   0 Mn:   -0.000000    5.000000

FINAL SINGLE POINT ENERGY     -1149.752228589899

DIPOLE MOMENT
-------------
                                X             Y             Z
Electronic contribution:      0.00000       0.00000      -0.00000
Nuclear contribution   :      0.00000       0.00000       0.00000
                        -----------------------------------------
Total Dipole Moment    :      0.00000       0.00000      -0.00000
                        -----------------------------------------
Magnitude (a.u.)       :      0.00000
Magnitude (Debye)      :      0.00000

                             ****ORCA TERMINATED NORMALLY****
TOTAL RUN TIME: 0 days 0 hours 0 minutes 10 seconds 207 msec
