                         Program Version 4.0.1.2 - RELEASE -
|  1> # ================================================================
|  2> # Orca input file
|  3> # ================================================================
|  4> ! HF def2-QZVP VeryTightSCF UseSym
|  5>
|  6> ! PAL4
|  7>
|  8> %scf
|  9>   STABPerform true
| 10> #  STABRestartUHFifUnstable true
| 11> end
| 12>
| 13>
| 14>
| 15> * xyzfile 0 4 ../../../../chem_database/N.xyz
| 16>
| 17>                          ****END OF INPUT****

CARTESIAN COORDINATES (ANGSTROEM)
---------------------------------
  N      0.000000    0.000000    0.000000

 Total Charge           Charge          ....    0
 Multiplicity           Mult            ....    4
 Number of Electrons    NEL             ....    7
 Basis Dimension        Dim             ....   57

ORBITAL ENERGIES
----------------
                 SPIN UP ORBITALS
  NO   OCC          E(Eh)            E(eV)    Irrep
   0   1.0000     -15.670334      -426.4115    1-Ag
   1   1.0000      -1.162667       -31.6378    2-Ag
   2   1.0000      -0.570659       -15.5284    1-B2u
   3   1.0000      -0.570659       -15.5284    1-B3u
   4   1.0000      -0.570659       -15.5284    1-B1u
   5   0.0000       0.291019         7.9190    2-B3u
   6   0.0000       0.291019         7.9190    2-B1u
   7   0.0000       0.291019         7.9190    2-B2u
   8   0.0000       0.390364        10.6223    3-Ag
   9   0.0000       0.879257        23.9258    1-B1g

                 SPIN DOWN ORBITALS
  NO   OCC          E(Eh)            E(eV)    Irrep
   0   1.0000     -15.580686      -423.9720    1-Ag
   1   1.0000      -0.725889       -19.7524    2-Ag
   2   0.0000       0.111733         3.0404    1-B3u
   3   0.0000       0.111733         3.0404    1-B2u
   4   0.0000       0.111733         3.0404    1-B1u
   5   0.0000       0.411627        11.2009    2-B3u
   6   0.0000       0.411627        11.2009    2-B1u

MULLIKEN ATOMIC CHARGES AND SPIN POPULATIONS
--------------------------------------------
   0 N :   -0.000000    3.000000
Sum of atomic charges         :   -0.0000000

LOEWDIN ATOMIC CHARGES AND SPIN POPULATIONS
-------------------------------------------
   0 N :    0.000000    3.000000

FINAL SINGLE POINT ENERGY       -54.404385286325

DIPOLE MOMENT
-------------
                                X             Y             Z
Electronic contribution:      0.00000       0.00000      -0.00000
Nuclear contribution   :      0.00000       0.00000       0.00000
                        -----------------------------------------
Total Dipole Moment    :      0.00000       0.00000      -0.00000
                        -----------------------------------------
Magnitude (a.u.)       :      0.00000
Magnitude (Debye)      :      0.00000

                             ****ORCA TERMINATED NORMALLY****
TOTAL RUN TIME: 0 days 0 hours 0 minutes 3 seconds 764 msec
