                         Program Version 4.0.1.2 - RELEASE -
|  1> # ================================================================
|  2> # Orca input file
|  3> # ================================================================
|  4> ! HF def2-QZVP VeryTightSCF UseSym
|  5>
|  6> ! PAL4
|  7>
|  8> %scf
|  9>   STABPerform true
| 10> #  STABRestartUHFifUnstable true
| 11> end
| 12>
| 13>
| 14>
| 15> * xyzfile 0 2 ../../../../chem_database/Li.xyz
| 16>
| 17>                          ****END OF INPUT****

CARTESIAN COORDINATES (ANGSTROEM)
---------------------------------
  Li     0.000000    0.000000    0.000000

 Total Charge           Charge          ....    0
 Multiplicity           Mult            ....    2
 Number of Electrons    NEL             ....    3
 Basis Dimension        Dim             ....   35

ORBITAL ENERGIES
----------------
                 SPIN UP ORBITALS
  NO   OCC          E(Eh)            E(eV)    Irrep
   0   1.0000      -2.486632       -67.6647    1-Ag
   1   1.0000      -0.196365        -5.3434    2-Ag
   2   0.0000       0.021490         0.5848    1-B2u
   3   0.0000       0.021490         0.5848    1-B1u
   4   0.0000       0.021490         0.5848    1-B3u
   5   0.0000       0.061426         1.6715    3-Ag
   6   0.0000       0.110362         3.0031    2-B2u

                 SPIN DOWN ORBITALS
  NO   OCC          E(Eh)            E(eV)    Irrep
   0   1.0000      -2.468734       -67.1777    1-Ag
   1   0.0000       0.013335         0.3629    2-Ag
   2   0.0000       0.041315         1.1242    1-B3u
   3   0.0000       0.041315         1.1242    1-B2u
   4   0.0000       0.041315         1.1242    1-B1u
   5   0.0000       0.093609         2.5472    3-Ag

MULLIKEN ATOMIC CHARGES AND SPIN POPULATIONS
--------------------------------------------
   0 Li:   -0.000000    1.000000
Sum of atomic charges         :   -0.0000000

LOEWDIN ATOMIC CHARGES AND SPIN POPULATIONS
-------------------------------------------
   0 Li:   -0.000000    1.000000

FINAL SINGLE POINT ENERGY        -7.432738547601

DIPOLE MOMENT
-------------
                                X             Y             Z
Electronic contribution:      0.00000       0.00000      -0.00000
Nuclear contribution   :      0.00000       0.00000       0.00000
                        -----------------------------------------
Total Dipole Moment    :      0.00000       0.00000      -0.00000
                        -----------------------------------------
Magnitude (a.u.)       :      0.00000
Magnitude (Debye)      :      0.00000

                             ****ORCA TERMINATED NORMALLY****
TOTAL RUN TIME: 0 days 0 hours 0 minutes 2 seconds 947 msec
