                         Program Version 4.0.1.2 - RELEASE -
|  1> # ================================================================
|  2> # Orca input file
|  3> # ================================================================
|  4> ! HF def2-QZVP VeryTightSCF UseSym
|  5>
|  6> ! PAL4
|  7>
|  8> %scf
|  9>   STABPerform true
| 10> #  STABRestartUHFifUnstable true
| 11> end
| 12>
| 13>
| 14>
| 15> * xyzfile 0 1 ../../../../chem_database/Ca.xyz
| 16>
| 17>                          ****END OF INPUT****

CARTESIAN COORDINATES (ANGSTROEM)
---------------------------------
  Ca     0.000000    0.000000    0.000000

 Total Charge           Charge          ....    0
 Multiplicity           Mult            ....    1
 Number of Electrons    NEL             ....   20
 Basis Dimension        Dim             ....   56

ORBITAL ENERGIES
----------------

  NO   OCC          E(Eh)            E(eV)    Irrep
   0   2.0000    -149.364592     -4064.4172    1-Ag
   1   2.0000     -16.823253      -457.7840    2-Ag
   2   2.0000     -13.629793      -370.8855    1-B2u
   3   2.0000     -13.629793      -370.8855    1-B1u
   4   2.0000     -13.629793      -370.8855    1-B3u
   5   2.0000      -2.245441       -61.1016    3-Ag
   6   2.0000      -1.340749       -36.4836    2-B2u
   7   2.0000      -1.340749       -36.4836    2-B3u
   8   2.0000      -1.340749       -36.4836    2-B1u
   9   2.0000      -0.195528        -5.3206    4-Ag
  10   0.0000       0.017790         0.4841    3-B2u
  11   0.0000       0.017790         0.4841    3-B3u
  12   0.0000       0.017790         0.4841    3-B1u
  13   0.0000       0.066852         1.8191    5-Ag
  14   0.0000       0.092773         2.5245    4-B3u

MULLIKEN ATOMIC CHARGES
-----------------------
   0 Ca:    0.000000
Sum of atomic charges:    0.0000000

LOEWDIN ATOMIC CHARGES
----------------------
   0 Ca:    0.000000

FINAL SINGLE POINT ENERGY      -676.757908301626

DIPOLE MOMENT
-------------
                                X             Y             Z
Electronic contribution:     -0.00000       0.00000      -0.00000
Nuclear contribution   :      0.00000       0.00000       0.00000
                        -----------------------------------------
Total Dipole Moment    :     -0.00000       0.00000      -0.00000
                        -----------------------------------------
Magnitude (a.u.)       :      0.00000
Magnitude (Debye)      :      0.00000

                             ****ORCA TERMINATED NORMALLY****
TOTAL RUN TIME: 0 days 0 hours 0 minutes 4 seconds 156 msec
