                         Program Version 4.0.1.2 - RELEASE -
|  1> # ================================================================
|  2> # Orca input file
|  3> # ================================================================
|  4> ! HF def2-QZVP VeryTightSCF UseSym
|  5>
|  6> ! PAL4
|  7>
|  8> %scf
|  9>   STABPerform true
| 10> #  STABRestartUHFifUnstable true
| 11> end
| 12>
| 13>
| 14>
| 15> * xyzfile 0 7 ../../../../chem_database/Cr.xyz
| 16>
| 17>                          ****END OF INPUT****

CARTESIAN COORDINATES (ANGSTROEM)
---------------------------------
  Cr     0.000000    0.000000    0.000000

 Total Charge           Charge          ....    0
 Multiplicity           Mult            ....    7
 Number of Electrons    NEL             ....   24
 Basis Dimension        Dim             ....   84

ORBITAL ENERGIES
----------------
                 SPIN UP ORBITALS
  NO   OCC          E(Eh)            E(eV)    Irrep
   0   1.0000    -220.387690     -5997.0539    1-Ag
   1   1.0000     -26.259338      -714.5529    2-Ag
   2   1.0000     -22.188716      -603.7857    1-B1u
   3   1.0000     -22.188716      -603.7857    1-B2u
   4   1.0000     -22.188716      -603.7857    1-B3u
   5   1.0000      -3.458540       -94.1117    3-Ag
   6   1.0000      -2.261491       -61.5383    2-B2u
   7   1.0000      -2.261491       -61.5383    2-B3u
   8   1.0000      -2.261491       -61.5383    2-B1u
   9   1.0000      -0.373398       -10.1607    4-Ag
  10   1.0000      -0.373398       -10.1607    5-Ag
  11   1.0000      -0.373398       -10.1607    1-B2g
  12   1.0000      -0.373398       -10.1607    1-B1g
  13   1.0000      -0.373398       -10.1607    1-B3g
  14   1.0000      -0.222187        -6.0460    6-Ag
  15   0.0000       0.027279         0.7423    3-B1u
  16   0.0000       0.027279         0.7423    3-B3u
  17   0.0000       0.027279         0.7423    3-B2u
  18   0.0000       0.088358         2.4043    7-Ag
  19   0.0000       0.131706         3.5839    4-B1u

                 SPIN DOWN ORBITALS
  NO   OCC          E(Eh)            E(eV)    Irrep
   0   1.0000    -220.386049     -5997.0093    1-Ag
   1   1.0000     -26.158605      -711.8118    2-Ag
   2   1.0000     -22.089727      -601.0920    1-B3u
   3   1.0000     -22.089727      -601.0920    1-B2u
   4   1.0000     -22.089727      -601.0920    1-B1u
   5   1.0000      -3.111161       -84.6590    3-Ag
   6   1.0000      -1.839780       -50.0630    2-B3u
   7   1.0000      -1.839780       -50.0630    2-B2u
   8   1.0000      -1.839780       -50.0630    2-B1u
   9   0.0000       0.023035         0.6268    4-Ag
  10   0.0000       0.050763         1.3813    3-B1u
  11   0.0000       0.050763         1.3813    3-B3u
  12   0.0000       0.050763         1.3813    3-B2u
  13   0.0000       0.141339         3.8460    5-Ag

MULLIKEN ATOMIC CHARGES AND SPIN POPULATIONS
--------------------------------------------
   0 Cr:    0.000000    6.000000
Sum of atomic charges         :    0.0000000

LOEWDIN ATOMIC CHARGES AND SPIN POPULATIONS
-------------------------------------------
   0 Cr:    0.000000    6.000000

FINAL SINGLE POINT ENERGY     -1043.355848023131

DIPOLE MOMENT
-------------
                                X             Y             Z
Electronic contribution:      0.00000       0.00000       0.00000
Nuclear contribution   :      0.00000       0.00000       0.00000
                        -----------------------------------------
Total Dipole Moment    :      0.00000       0.00000       0.00000
                        -----------------------------------------
Magnitude (a.u.)       :      0.00000
Magnitude (Debye)      :      0.00000

                             ****ORCA TERMINATED NORMALLY****
TOTAL RUN TIME: 0 days 0 hours 0 minutes 8 seconds 95 msec
