                         Program Version 4.0.1.2 - RELEASE -
|  1> # ================================================================
|  2> # Orca input file
|  3> # ================================================================
|  4> ! HF def2-QZVP VeryTightSCF UseSym
|  5>
|  6> ! PAL4
|  7>
|  8> %scf
|  9>   STABPerform true
| 10> #  STABRestartUHFifUnstable true
| 11> end
| 12>
| 13>
| 14>
| 15> * xyzfile 0 2 ../../../../chem_database/F.xyz
| 16>
| 17>                          ****END OF INPUT****

CARTESIAN COORDINATES (ANGSTROEM)
---------------------------------
  F      0.000000    0.000000    0.000000

 Total Charge           Charge          ....    0
 Multiplicity           Mult            ....    2
 Number of Electrons    NEL             ....    9
 Basis Dimension        Dim             ....   57

ORBITAL ENERGIES
----------------
                 SPIN UP ORBITALS
  NO   OCC          E(Eh)            E(eV)    Irrep
   0   1.0000     -26.406332      -718.5528    1-Ag
   1   1.0000      -1.672072       -45.4994    2-Ag
   2   1.0000      -0.845017       -22.9941    1-B1u
   3   1.0000      -0.731296       -19.8996    1-B3u
   4   1.0000      -0.731296       -19.8996    1-B2u
   5   0.0000       0.407839        11.0979    2-B1u
   6   0.0000       0.430796        11.7226    2-B2u
   7   0.0000       0.430796        11.7226    2-B3u
   8   0.0000       0.645313        17.5599    3-Ag
   9   0.0000       1.533350        41.7246    4-Ag

                 SPIN DOWN ORBITALS
  NO   OCC          E(Eh)            E(eV)    Irrep
   0   1.0000     -26.358378      -717.2479    1-Ag
   1   1.0000      -1.476758       -40.1846    2-Ag
   2   1.0000      -0.679634       -18.4938    1-B3u
   3   1.0000      -0.679634       -18.4938    1-B2u
   4   0.0000       0.048733         1.3261    1-B1u
   5   0.0000       0.436982        11.8909    2-B2u
   6   0.0000       0.436982        11.8909    2-B3u
   7   0.0000       0.506735        13.7890    2-B1u
   8   0.0000       0.671024        18.2595    3-Ag

MULLIKEN ATOMIC CHARGES AND SPIN POPULATIONS
--------------------------------------------
   0 F :    0.000000    1.000000
Sum of atomic charges         :    0.0000000

LOEWDIN ATOMIC CHARGES AND SPIN POPULATIONS
-------------------------------------------
   0 F :    0.000000    1.000000

FINAL SINGLE POINT ENERGY       -99.415886981064

DIPOLE MOMENT
-------------
                                X             Y             Z
Electronic contribution:      0.00000       0.00000       0.00000
Nuclear contribution   :      0.00000       0.00000       0.00000
                        -----------------------------------------
Total Dipole Moment    :      0.00000       0.00000       0.00000
                        -----------------------------------------
Magnitude (a.u.)       :      0.00000
Magnitude (Debye)      :      0.00000

                             ****ORCA TERMINATED NORMALLY****
TOTAL RUN TIME: 0 days 0 hours 0 minutes 5 seconds 603 msec
