                         Program Version 4.0.1.2 - RELEASE -
|  1> # ================================================================
|  2> # Orca input file
|  3> # ================================================================
|  4> ! RI-MP2 def2-QZVP def2-QZVPP/C VeryTightSCF
|  5> ! PAL4
|  6>
|  7> %mp2
|  8>   density unrelaxed
|  9>   natorbs true
| 10> end
| 11>
| 12> * xyzfile 0 2 ../../../../chem_database/B.xyz
| 13>
| 14>
| 15> $new_job
| 16> ! def2-QZVP VeryTightSCF
| 17> ! MOREAD
| 18>
| 19> %moinp "mol.mp2nat"
| 20>
| 21> %casscf
| 22>   nel  3
| 23>   norb 8
| 24>   PrintWF det
| 25> end
| 26>
| 27> * xyzfile 0 2 ../../../../chem_database/B.xyz
| 28>
| 29>
| 30> $new_job
| 31> ! def2-QZVP VeryTightSCF
| 32>
| 33> %casscf
| 34>   nel  3
| 35>   norb 8
| 36>   PrintWF csf
| 37> end
| 38>
| 39> * xyzfile 0 2 ../../../../chem_database/B.xyz
| 40>
| 41>                          ****END OF INPUT****
 Total Charge           Charge          ....    0
 Multiplicity           Mult            ....    2
 Number of Electrons    NEL             ....    5
MP2 TOTAL ENERGY:      -24.579789133 Eh
FINAL SINGLE POINT ENERGY       -24.579789132762
FINAL SINGLE POINT ENERGY       -24.589574788417

CARTESIAN COORDINATES (ANGSTROEM)
---------------------------------
  B      0.000000    0.000000    0.000000

 Multiplicity           Mult            ....    2
 Number of Electrons    NEL             ....    5
 Basis Dimension        Dim             ....   57

ORBITAL ENERGIES
----------------

  NO   OCC          E(Eh)            E(eV)
   0   2.0000      -7.676099      -208.8773
   1   1.8781      -0.467016       -12.7082
   2   0.9879      -0.072580        -1.9750
   3   0.0543       0.131091         3.5672
   4   0.0543       0.131091         3.5672
   5   0.0099       0.725022        19.7289
   6   0.0066       0.795997        21.6602
   7   0.0066       0.795997        21.6602
   8   0.0023       0.703232        19.1359
   9   0.0000       0.135122         3.6769
  10   0.0000       0.135122         3.6769
  11   0.0000       0.157307         4.2805
  12   0.0000       0.411575        11.1995
  13   0.0000       0.411575        11.1995

MULLIKEN ATOMIC CHARGES AND SPIN DENSITIES
------------------------------------------
   0 B :   -0.000000    1.000000
Sum of atomic charges       :   -0.0000000

LOEWDIN ATOMIC CHARGES AND SPIN DENSITIES
-----------------------------------------
   0 B :   -0.000000    1.000000

FINAL SINGLE POINT ENERGY       -24.589574788417

DIPOLE MOMENT
-------------
                                X             Y             Z
Electronic contribution:      0.00000      -0.00000       0.00000
Nuclear contribution   :      0.00000       0.00000       0.00000
                        -----------------------------------------
Total Dipole Moment    :      0.00000      -0.00000       0.00000
                        -----------------------------------------
Magnitude (a.u.)       :      0.00000
Magnitude (Debye)      :      0.00000

                             ****ORCA TERMINATED NORMALLY****
TOTAL RUN TIME: 0 days 0 hours 0 minutes 9 seconds 81 msec
